# vtk DataFile Version 2.0
 Generated by Ninoy Rahman
ASCII
 
DATASET UNSTRUCTURED_GRID
 POINTS        64000  double
 -0.9750 -0.9750 -0.9750
 -0.9750 -0.9750 -0.9250
 -0.9750 -0.9750 -0.8750
 -0.9750 -0.9750 -0.8250
 -0.9750 -0.9750 -0.7750
 -0.9750 -0.9750 -0.7250
 -0.9750 -0.9750 -0.6750
 -0.9750 -0.9750 -0.6250
 -0.9750 -0.9750 -0.5750
 -0.9750 -0.9750 -0.5250
 -0.9750 -0.9750 -0.4750
 -0.9750 -0.9750 -0.4250
 -0.9750 -0.9750 -0.3750
 -0.9750 -0.9750 -0.3250
 -0.9750 -0.9750 -0.2750
 -0.9750 -0.9750 -0.2250
 -0.9750 -0.9750 -0.1750
 -0.9750 -0.9750 -0.1250
 -0.9750 -0.9750 -0.0750
 -0.9750 -0.9750 -0.0250
 -0.9750 -0.9750  0.0250
 -0.9750 -0.9750  0.0750
 -0.9750 -0.9750  0.1250
 -0.9750 -0.9750  0.1750
 -0.9750 -0.9750  0.2250
 -0.9750 -0.9750  0.2750
 -0.9750 -0.9750  0.3250
 -0.9750 -0.9750  0.3750
 -0.9750 -0.9750  0.4250
 -0.9750 -0.9750  0.4750
 -0.9750 -0.9750  0.5250
 -0.9750 -0.9750  0.5750
 -0.9750 -0.9750  0.6250
 -0.9750 -0.9750  0.6750
 -0.9750 -0.9750  0.7250
 -0.9750 -0.9750  0.7750
 -0.9750 -0.9750  0.8250
 -0.9750 -0.9750  0.8750
 -0.9750 -0.9750  0.9250
 -0.9750 -0.9750  0.9750
 -0.9750 -0.9250 -0.9750
 -0.9750 -0.9250 -0.9250
 -0.9750 -0.9250 -0.8750
 -0.9750 -0.9250 -0.8250
 -0.9750 -0.9250 -0.7750
 -0.9750 -0.9250 -0.7250
 -0.9750 -0.9250 -0.6750
 -0.9750 -0.9250 -0.6250
 -0.9750 -0.9250 -0.5750
 -0.9750 -0.9250 -0.5250
 -0.9750 -0.9250 -0.4750
 -0.9750 -0.9250 -0.4250
 -0.9750 -0.9250 -0.3750
 -0.9750 -0.9250 -0.3250
 -0.9750 -0.9250 -0.2750
 -0.9750 -0.9250 -0.2250
 -0.9750 -0.9250 -0.1750
 -0.9750 -0.9250 -0.1250
 -0.9750 -0.9250 -0.0750
 -0.9750 -0.9250 -0.0250
 -0.9750 -0.9250  0.0250
 -0.9750 -0.9250  0.0750
 -0.9750 -0.9250  0.1250
 -0.9750 -0.9250  0.1750
 -0.9750 -0.9250  0.2250
 -0.9750 -0.9250  0.2750
 -0.9750 -0.9250  0.3250
 -0.9750 -0.9250  0.3750
 -0.9750 -0.9250  0.4250
 -0.9750 -0.9250  0.4750
 -0.9750 -0.9250  0.5250
 -0.9750 -0.9250  0.5750
 -0.9750 -0.9250  0.6250
 -0.9750 -0.9250  0.6750
 -0.9750 -0.9250  0.7250
 -0.9750 -0.9250  0.7750
 -0.9750 -0.9250  0.8250
 -0.9750 -0.9250  0.8750
 -0.9750 -0.9250  0.9250
 -0.9750 -0.9250  0.9750
 -0.9750 -0.8750 -0.9750
 -0.9750 -0.8750 -0.9250
 -0.9750 -0.8750 -0.8750
 -0.9750 -0.8750 -0.8250
 -0.9750 -0.8750 -0.7750
 -0.9750 -0.8750 -0.7250
 -0.9750 -0.8750 -0.6750
 -0.9750 -0.8750 -0.6250
 -0.9750 -0.8750 -0.5750
 -0.9750 -0.8750 -0.5250
 -0.9750 -0.8750 -0.4750
 -0.9750 -0.8750 -0.4250
 -0.9750 -0.8750 -0.3750
 -0.9750 -0.8750 -0.3250
 -0.9750 -0.8750 -0.2750
 -0.9750 -0.8750 -0.2250
 -0.9750 -0.8750 -0.1750
 -0.9750 -0.8750 -0.1250
 -0.9750 -0.8750 -0.0750
 -0.9750 -0.8750 -0.0250
 -0.9750 -0.8750  0.0250
 -0.9750 -0.8750  0.0750
 -0.9750 -0.8750  0.1250
 -0.9750 -0.8750  0.1750
 -0.9750 -0.8750  0.2250
 -0.9750 -0.8750  0.2750
 -0.9750 -0.8750  0.3250
 -0.9750 -0.8750  0.3750
 -0.9750 -0.8750  0.4250
 -0.9750 -0.8750  0.4750
 -0.9750 -0.8750  0.5250
 -0.9750 -0.8750  0.5750
 -0.9750 -0.8750  0.6250
 -0.9750 -0.8750  0.6750
 -0.9750 -0.8750  0.7250
 -0.9750 -0.8750  0.7750
 -0.9750 -0.8750  0.8250
 -0.9750 -0.8750  0.8750
 -0.9750 -0.8750  0.9250
 -0.9750 -0.8750  0.9750
 -0.9750 -0.8250 -0.9750
 -0.9750 -0.8250 -0.9250
 -0.9750 -0.8250 -0.8750
 -0.9750 -0.8250 -0.8250
 -0.9750 -0.8250 -0.7750
 -0.9750 -0.8250 -0.7250
 -0.9750 -0.8250 -0.6750
 -0.9750 -0.8250 -0.6250
 -0.9750 -0.8250 -0.5750
 -0.9750 -0.8250 -0.5250
 -0.9750 -0.8250 -0.4750
 -0.9750 -0.8250 -0.4250
 -0.9750 -0.8250 -0.3750
 -0.9750 -0.8250 -0.3250
 -0.9750 -0.8250 -0.2750
 -0.9750 -0.8250 -0.2250
 -0.9750 -0.8250 -0.1750
 -0.9750 -0.8250 -0.1250
 -0.9750 -0.8250 -0.0750
 -0.9750 -0.8250 -0.0250
 -0.9750 -0.8250  0.0250
 -0.9750 -0.8250  0.0750
 -0.9750 -0.8250  0.1250
 -0.9750 -0.8250  0.1750
 -0.9750 -0.8250  0.2250
 -0.9750 -0.8250  0.2750
 -0.9750 -0.8250  0.3250
 -0.9750 -0.8250  0.3750
 -0.9750 -0.8250  0.4250
 -0.9750 -0.8250  0.4750
 -0.9750 -0.8250  0.5250
 -0.9750 -0.8250  0.5750
 -0.9750 -0.8250  0.6250
 -0.9750 -0.8250  0.6750
 -0.9750 -0.8250  0.7250
 -0.9750 -0.8250  0.7750
 -0.9750 -0.8250  0.8250
 -0.9750 -0.8250  0.8750
 -0.9750 -0.8250  0.9250
 -0.9750 -0.8250  0.9750
 -0.9750 -0.7750 -0.9750
 -0.9750 -0.7750 -0.9250
 -0.9750 -0.7750 -0.8750
 -0.9750 -0.7750 -0.8250
 -0.9750 -0.7750 -0.7750
 -0.9750 -0.7750 -0.7250
 -0.9750 -0.7750 -0.6750
 -0.9750 -0.7750 -0.6250
 -0.9750 -0.7750 -0.5750
 -0.9750 -0.7750 -0.5250
 -0.9750 -0.7750 -0.4750
 -0.9750 -0.7750 -0.4250
 -0.9750 -0.7750 -0.3750
 -0.9750 -0.7750 -0.3250
 -0.9750 -0.7750 -0.2750
 -0.9750 -0.7750 -0.2250
 -0.9750 -0.7750 -0.1750
 -0.9750 -0.7750 -0.1250
 -0.9750 -0.7750 -0.0750
 -0.9750 -0.7750 -0.0250
 -0.9750 -0.7750  0.0250
 -0.9750 -0.7750  0.0750
 -0.9750 -0.7750  0.1250
 -0.9750 -0.7750  0.1750
 -0.9750 -0.7750  0.2250
 -0.9750 -0.7750  0.2750
 -0.9750 -0.7750  0.3250
 -0.9750 -0.7750  0.3750
 -0.9750 -0.7750  0.4250
 -0.9750 -0.7750  0.4750
 -0.9750 -0.7750  0.5250
 -0.9750 -0.7750  0.5750
 -0.9750 -0.7750  0.6250
 -0.9750 -0.7750  0.6750
 -0.9750 -0.7750  0.7250
 -0.9750 -0.7750  0.7750
 -0.9750 -0.7750  0.8250
 -0.9750 -0.7750  0.8750
 -0.9750 -0.7750  0.9250
 -0.9750 -0.7750  0.9750
 -0.9750 -0.7250 -0.9750
 -0.9750 -0.7250 -0.9250
 -0.9750 -0.7250 -0.8750
 -0.9750 -0.7250 -0.8250
 -0.9750 -0.7250 -0.7750
 -0.9750 -0.7250 -0.7250
 -0.9750 -0.7250 -0.6750
 -0.9750 -0.7250 -0.6250
 -0.9750 -0.7250 -0.5750
 -0.9750 -0.7250 -0.5250
 -0.9750 -0.7250 -0.4750
 -0.9750 -0.7250 -0.4250
 -0.9750 -0.7250 -0.3750
 -0.9750 -0.7250 -0.3250
 -0.9750 -0.7250 -0.2750
 -0.9750 -0.7250 -0.2250
 -0.9750 -0.7250 -0.1750
 -0.9750 -0.7250 -0.1250
 -0.9750 -0.7250 -0.0750
 -0.9750 -0.7250 -0.0250
 -0.9750 -0.7250  0.0250
 -0.9750 -0.7250  0.0750
 -0.9750 -0.7250  0.1250
 -0.9750 -0.7250  0.1750
 -0.9750 -0.7250  0.2250
 -0.9750 -0.7250  0.2750
 -0.9750 -0.7250  0.3250
 -0.9750 -0.7250  0.3750
 -0.9750 -0.7250  0.4250
 -0.9750 -0.7250  0.4750
 -0.9750 -0.7250  0.5250
 -0.9750 -0.7250  0.5750
 -0.9750 -0.7250  0.6250
 -0.9750 -0.7250  0.6750
 -0.9750 -0.7250  0.7250
 -0.9750 -0.7250  0.7750
 -0.9750 -0.7250  0.8250
 -0.9750 -0.7250  0.8750
 -0.9750 -0.7250  0.9250
 -0.9750 -0.7250  0.9750
 -0.9750 -0.6750 -0.9750
 -0.9750 -0.6750 -0.9250
 -0.9750 -0.6750 -0.8750
 -0.9750 -0.6750 -0.8250
 -0.9750 -0.6750 -0.7750
 -0.9750 -0.6750 -0.7250
 -0.9750 -0.6750 -0.6750
 -0.9750 -0.6750 -0.6250
 -0.9750 -0.6750 -0.5750
 -0.9750 -0.6750 -0.5250
 -0.9750 -0.6750 -0.4750
 -0.9750 -0.6750 -0.4250
 -0.9750 -0.6750 -0.3750
 -0.9750 -0.6750 -0.3250
 -0.9750 -0.6750 -0.2750
 -0.9750 -0.6750 -0.2250
 -0.9750 -0.6750 -0.1750
 -0.9750 -0.6750 -0.1250
 -0.9750 -0.6750 -0.0750
 -0.9750 -0.6750 -0.0250
 -0.9750 -0.6750  0.0250
 -0.9750 -0.6750  0.0750
 -0.9750 -0.6750  0.1250
 -0.9750 -0.6750  0.1750
 -0.9750 -0.6750  0.2250
 -0.9750 -0.6750  0.2750
 -0.9750 -0.6750  0.3250
 -0.9750 -0.6750  0.3750
 -0.9750 -0.6750  0.4250
 -0.9750 -0.6750  0.4750
 -0.9750 -0.6750  0.5250
 -0.9750 -0.6750  0.5750
 -0.9750 -0.6750  0.6250
 -0.9750 -0.6750  0.6750
 -0.9750 -0.6750  0.7250
 -0.9750 -0.6750  0.7750
 -0.9750 -0.6750  0.8250
 -0.9750 -0.6750  0.8750
 -0.9750 -0.6750  0.9250
 -0.9750 -0.6750  0.9750
 -0.9750 -0.6250 -0.9750
 -0.9750 -0.6250 -0.9250
 -0.9750 -0.6250 -0.8750
 -0.9750 -0.6250 -0.8250
 -0.9750 -0.6250 -0.7750
 -0.9750 -0.6250 -0.7250
 -0.9750 -0.6250 -0.6750
 -0.9750 -0.6250 -0.6250
 -0.9750 -0.6250 -0.5750
 -0.9750 -0.6250 -0.5250
 -0.9750 -0.6250 -0.4750
 -0.9750 -0.6250 -0.4250
 -0.9750 -0.6250 -0.3750
 -0.9750 -0.6250 -0.3250
 -0.9750 -0.6250 -0.2750
 -0.9750 -0.6250 -0.2250
 -0.9750 -0.6250 -0.1750
 -0.9750 -0.6250 -0.1250
 -0.9750 -0.6250 -0.0750
 -0.9750 -0.6250 -0.0250
 -0.9750 -0.6250  0.0250
 -0.9750 -0.6250  0.0750
 -0.9750 -0.6250  0.1250
 -0.9750 -0.6250  0.1750
 -0.9750 -0.6250  0.2250
 -0.9750 -0.6250  0.2750
 -0.9750 -0.6250  0.3250
 -0.9750 -0.6250  0.3750
 -0.9750 -0.6250  0.4250
 -0.9750 -0.6250  0.4750
 -0.9750 -0.6250  0.5250
 -0.9750 -0.6250  0.5750
 -0.9750 -0.6250  0.6250
 -0.9750 -0.6250  0.6750
 -0.9750 -0.6250  0.7250
 -0.9750 -0.6250  0.7750
 -0.9750 -0.6250  0.8250
 -0.9750 -0.6250  0.8750
 -0.9750 -0.6250  0.9250
 -0.9750 -0.6250  0.9750
 -0.9750 -0.5750 -0.9750
 -0.9750 -0.5750 -0.9250
 -0.9750 -0.5750 -0.8750
 -0.9750 -0.5750 -0.8250
 -0.9750 -0.5750 -0.7750
 -0.9750 -0.5750 -0.7250
 -0.9750 -0.5750 -0.6750
 -0.9750 -0.5750 -0.6250
 -0.9750 -0.5750 -0.5750
 -0.9750 -0.5750 -0.5250
 -0.9750 -0.5750 -0.4750
 -0.9750 -0.5750 -0.4250
 -0.9750 -0.5750 -0.3750
 -0.9750 -0.5750 -0.3250
 -0.9750 -0.5750 -0.2750
 -0.9750 -0.5750 -0.2250
 -0.9750 -0.5750 -0.1750
 -0.9750 -0.5750 -0.1250
 -0.9750 -0.5750 -0.0750
 -0.9750 -0.5750 -0.0250
 -0.9750 -0.5750  0.0250
 -0.9750 -0.5750  0.0750
 -0.9750 -0.5750  0.1250
 -0.9750 -0.5750  0.1750
 -0.9750 -0.5750  0.2250
 -0.9750 -0.5750  0.2750
 -0.9750 -0.5750  0.3250
 -0.9750 -0.5750  0.3750
 -0.9750 -0.5750  0.4250
 -0.9750 -0.5750  0.4750
 -0.9750 -0.5750  0.5250
 -0.9750 -0.5750  0.5750
 -0.9750 -0.5750  0.6250
 -0.9750 -0.5750  0.6750
 -0.9750 -0.5750  0.7250
 -0.9750 -0.5750  0.7750
 -0.9750 -0.5750  0.8250
 -0.9750 -0.5750  0.8750
 -0.9750 -0.5750  0.9250
 -0.9750 -0.5750  0.9750
 -0.9750 -0.5250 -0.9750
 -0.9750 -0.5250 -0.9250
 -0.9750 -0.5250 -0.8750
 -0.9750 -0.5250 -0.8250
 -0.9750 -0.5250 -0.7750
 -0.9750 -0.5250 -0.7250
 -0.9750 -0.5250 -0.6750
 -0.9750 -0.5250 -0.6250
 -0.9750 -0.5250 -0.5750
 -0.9750 -0.5250 -0.5250
 -0.9750 -0.5250 -0.4750
 -0.9750 -0.5250 -0.4250
 -0.9750 -0.5250 -0.3750
 -0.9750 -0.5250 -0.3250
 -0.9750 -0.5250 -0.2750
 -0.9750 -0.5250 -0.2250
 -0.9750 -0.5250 -0.1750
 -0.9750 -0.5250 -0.1250
 -0.9750 -0.5250 -0.0750
 -0.9750 -0.5250 -0.0250
 -0.9750 -0.5250  0.0250
 -0.9750 -0.5250  0.0750
 -0.9750 -0.5250  0.1250
 -0.9750 -0.5250  0.1750
 -0.9750 -0.5250  0.2250
 -0.9750 -0.5250  0.2750
 -0.9750 -0.5250  0.3250
 -0.9750 -0.5250  0.3750
 -0.9750 -0.5250  0.4250
 -0.9750 -0.5250  0.4750
 -0.9750 -0.5250  0.5250
 -0.9750 -0.5250  0.5750
 -0.9750 -0.5250  0.6250
 -0.9750 -0.5250  0.6750
 -0.9750 -0.5250  0.7250
[...]
 POINT_DATA        64000
SCALARS Error double 1
LOOKUP_TABLE DEFAULT
   6.6013474686599238E-009
   1.2889337264176959E-008
   1.8883243080303203E-008
   2.4629261408115610E-008
   3.0077773716108425E-008
   3.5113751684079375E-008
   3.9572429555434496E-008
   4.3254366199896310E-008
   4.5945957927173708E-008
   4.7446827355912546E-008
   4.7602891295461802E-008
   4.6341657733428576E-008
   4.3704306285086147E-008
   3.9867813939054031E-008
   3.5150344412926415E-008
   2.9994792871690379E-008
   2.4928907937926681E-008
   2.0505183107033531E-008
   1.7228829918281008E-008
   1.5486025572997164E-008
   1.5486025795041769E-008
   1.7228829918281008E-008
   2.0505183107033531E-008
   2.4928908159971286E-008
   2.9994792538623472E-008
   3.5150343968837205E-008
   3.9867814383143241E-008
   4.3704306063041543E-008
   4.6341657622406274E-008
   4.7602891073417197E-008
   4.7446827466934849E-008
   4.5945958260240616E-008
   4.3254366310918613E-008
   3.9572429666456799E-008
   3.5113752461235492E-008
   3.0077774049175332E-008
   2.4629261630160215E-008
   1.8883243302347807E-008
   1.2889337264176959E-008
   6.6013476907045288E-009
   1.2889337708266169E-008
   2.5479920617854646E-008
   3.7584165557547067E-008
   4.9242287469830615E-008
   6.0346836749936017E-008
   7.0666968499111249E-008
   7.9871102953710249E-008
   8.7554275829404560E-008
   9.3278182511369323E-008
   9.6626129209020917E-008
   9.7270458021547768E-008
   9.5045502357393730E-008
   9.0014968368024029E-008
   8.2519690525195699E-008
   7.3191401495087405E-008
   6.2921434396123743E-008
   5.2780421921916343E-008
   4.3895221235601412E-008
   3.7300070143686526E-008
   3.3787477038416114E-008
   3.3787476594326904E-008
   3.7300069921641921E-008
   4.3895221457646016E-008
   5.2780421033737923E-008
   6.2921433952034533E-008
   7.3191402161221220E-008
   8.2519690636218002E-008
   9.0014968701090936E-008
   9.5045502690460637E-008
   9.7270457688480860E-008
   9.6626129542087824E-008
   9.3278182178302416E-008
   8.7554275940426862E-008
   7.9871103064732552E-008
   7.0666967943999737E-008
   6.0346837083002924E-008
   4.9242287136763707E-008
   3.7584165557547067E-008
   2.5479920395810041E-008
   1.2889337264176959E-008
   1.8883243413370110E-008
   3.7584166001636277E-008
   5.5699940659792446E-008
   7.3245711273983716E-008
   9.0051319623363213E-008
   1.0576952758079017E-007
   1.1989901060882602E-007
   1.3182041513903897E-007
   1.4085424826504322E-007
   1.4634335243624008E-007
   1.4775650591936085E-007
   1.4480280696727021E-007
   1.3753970884433642E-007
   1.2645246905140795E-007
   1.1248164066834931E-007
   9.6979872798996780E-008
   8.1590426082023271E-008
   6.8056048685427584E-008
   5.7984701817836992E-008
   5.2612869394508266E-008
   5.2612869838597476E-008
   5.7984702150903900E-008
   6.8056048130316071E-008
   8.1590425415889456E-008
   9.6979872910019083E-008
   1.1248164033528241E-007
   1.2645246927345255E-007
   1.3753970884433642E-007
   1.4480280707829252E-007
   1.4775650547527164E-007
   1.4634335243624008E-007
   1.4085424782095401E-007
   1.3182041513903897E-007
   1.1989901071984832E-007
   1.0576952758079017E-007
   9.0051319290296306E-008
   7.3245711273983716E-008
   5.5699940548770144E-008
   3.7584165446524764E-008
   1.8883243191325505E-008
   2.4629261519137913E-008
   4.9242286803696800E-008
   7.3245711496028321E-008
   9.6634698132369579E-008
   1.1917936559857623E-007
   1.4041629747829631E-007
   1.5966838817771389E-007
   1.7608660751733396E-007
   1.8872409035530779E-007
   1.9664657557871834E-007
   1.9907524562157164E-007
   1.9554848551539550E-007
   1.8607888985222587E-007
   1.7127373963532477E-007
   1.5238430972619454E-007
   1.3125504816358102E-007
   1.1015911005607393E-007
   9.1530526047378657E-008
   7.7630041839249486E-008
   7.0203848179239969E-008
   7.0203848068217667E-008
   7.7630041839249486E-008
   9.1530525825334053E-008
   1.1015910994505163E-007
   1.3125504805255872E-007
   1.5238431005926145E-007
   1.7127373974634708E-007
   1.8607888951915896E-007
   1.9554848518232859E-007
   1.9907524573259394E-007
   1.9664657524565143E-007
   1.8872409068837470E-007
   1.7608660707324475E-007
   1.5966838873282541E-007
   1.4041629725625171E-007
   1.1917936570959853E-007
   9.6634697799302671E-008
   7.3245711385006018E-008
   4.9242286692674497E-008
   2.4629261186071005E-008
   3.0077774382242239E-008
   6.0346836971980622E-008
   9.0051318735184793E-008
   1.1917936626471004E-007
   1.4744955267875781E-007
   1.7428437804056784E-007
   1.9882401758319901E-007
   2.1997078503144252E-007
   2.3647761382417087E-007
   2.4708696699793364E-007
   2.5071677833832240E-007
   2.4667721909565898E-007
   2.3488764600010370E-007
   2.1605063049712214E-007
   1.9173420828799692E-007
   1.6431950378148485E-007
   1.3679113763931383E-007
   1.1238089170362286E-007
   9.4113711490706464E-008
   8.4338097394720535E-008
   8.4338097505742837E-008
   9.4113711601728767E-008
   1.1238089181464517E-007
   1.3679113752829153E-007
   1.6431950367046255E-007
   1.9173420839901922E-007
   2.1605063038609984E-007
   2.3488764600010370E-007
   2.4667721898463668E-007
   2.5071677867138931E-007
   2.4708696677588904E-007
   2.3647761415723778E-007
   2.1997078525348712E-007
   1.9882401813831052E-007
   1.7428437826261245E-007
   1.4744955290080242E-007
   1.1917936637573234E-007
   9.0051318957229398E-008
   6.0346836527891412E-008
   3.0077773938153030E-008
   3.5113751795101678E-008
   7.0666967499910527E-008
   1.0576952702567866E-007
   1.4041629736727401E-007
   1.7428437792954554E-007
   2.0668575317905891E-007
   2.3657137904198322E-007
   2.6257480745250916E-007
   2.8311267130654016E-007
   2.9655223721114510E-007
   3.0144449891800207E-007
   2.9680468338622035E-007
   2.8240224836384442E-007
   2.5900393052502579E-007
   2.2850320502421084E-007
   1.9387465877152010E-007
   1.5891737858986232E-007
   1.2779584246391806E-007
   1.0444097531259189E-007
   9.1921816713913529E-008
   9.1921816824935831E-008
   1.0444097520156959E-007
   1.2779584279698497E-007
   1.5891737903395153E-007
   1.9387465888254241E-007
   2.2850320524625545E-007
   2.5900393096911500E-007
   2.8240224747566600E-007
   2.9680468416337646E-007
   3.0144449958413588E-007
   2.9655223765523431E-007
   2.8311267152858477E-007
   2.6257480767455377E-007
   2.3657137904198322E-007
   2.0668575329008121E-007
   1.7428437781852324E-007
   1.4041629758931862E-007
   1.0576952746976787E-007
   7.0666968055022039E-008
   3.5113751351012468E-008
   3.9572429444412194E-008
   7.9871103064732552E-008
   1.1989901049780372E-007
   1.5966838851078080E-007
   1.9882401791626592E-007
   2.3657137926402783E-007
   2.7166681182411168E-007
   3.0245608184653605E-007
   3.2698371055239761E-007
   3.4318859454263162E-007
   3.4918790581262016E-007
   3.4363044809637699E-007
   3.2607416677876699E-007
   2.9731614181738308E-007
   2.5958639260359462E-007
   2.1651985426807130E-007
   1.7285165343494668E-007
   1.3383919661436039E-007
   1.0448870824131262E-007
   8.8731594516389123E-008
   8.8731594627411425E-008
   1.0448870890744644E-007
   1.3383919683640499E-007
   1.7285165332392438E-007
   2.1651985460113821E-007
   2.5958639271461692E-007
   2.9731614137329387E-007
   3.2607416633467778E-007
   3.4363044798535469E-007
   3.4918790625670937E-007
   3.4318859465365392E-007
   3.2698371066341991E-007
   3.0245608151346914E-007
   2.7166681237922319E-007
   2.3657137904198322E-007
   1.9882401747217671E-007
   1.5966838817771389E-007
   1.1989900949860299E-007
   7.9871102842687947E-008
   3.9572429222367589E-008
   4.3254365977851705E-008
   8.7554276495538375E-008
   1.3182041525006127E-007
   1.7608660740631166E-007
   2.1997078480939791E-007
   2.6257480745250916E-007
   3.0245608162449145E-007
   3.3765638007832166E-007
   3.6581610429742284E-007
   3.8439643557097725E-007
   3.9101679949471446E-007
   3.8388969336722312E-007
   3.6230056721375803E-007
   3.2704407504358102E-007
   2.8070169100224973E-007
   2.2764440565925526E-007
   1.7368010507556875E-007
   1.2533996751606935E-007
   8.8897548766730949E-008
   6.9308135675072435E-008
   6.9308135675072435E-008
   8.8897548988775554E-008
   1.2533996829322547E-007
   1.7368010496454644E-007
   2.2764440577027756E-007
   2.8070169055816052E-007
   3.2704407504358102E-007
   3.6230056699171342E-007
   3.8388969347824542E-007
   3.9101679905062525E-007
   3.8439643623711106E-007
   3.6581610540764586E-007
   3.3765637952321015E-007
   3.0245608184653605E-007
   2.6257480767455377E-007
   2.1997078558655403E-007
   1.7608660718426705E-007
   1.3182041491699437E-007
   8.7554276273493770E-008
   4.3254365755807100E-008
   4.5945957927173708E-008
   9.3278181956257811E-008
   1.4085424848708783E-007
   1.8872409057735240E-007
   2.3647761415723778E-007
   2.8311267141756247E-007
   3.2698371055239761E-007
   3.6581610440844514E-007
   3.9682101471427700E-007
   4.1694164254479915E-007
   4.2324576465802011E-007
   4.1344933543463469E-007
   3.8651271971890111E-007
   3.4320249253649848E-007
   2.8647327388053867E-007
   2.2151589917918102E-007
   1.5535848874037583E-007
   9.6000454141709213E-008
   5.1189599559187116E-008
   2.7079622211267917E-008
   2.7079622655357127E-008
   5.1189599670209418E-008
   9.6000454363753818E-008
   1.5535848818526432E-007
   2.2151589884611411E-007
   2.8647327365849407E-007
   3.4320249309160999E-007
   3.8651271960787881E-007
   4.1344933587872390E-007
   4.2324576443597550E-007
   4.1694164287786606E-007
   3.9682101471427700E-007
   3.6581610540764586E-007
   3.2698371066341991E-007
   2.8311267163960707E-007
   2.3647761371314857E-007
   1.8872409046633010E-007
   1.4085424793197632E-007
   9.3278182511369323E-008
   4.5945958371262918E-008
   4.7446827466934849E-008
   9.6626129764132429E-008
   1.4634335232521778E-007
   1.9664657546769604E-007
   2.4708696677588904E-007
   2.9655223676705589E-007
   3.4318859454263162E-007
   3.8439643557097725E-007
   4.1694164187866534E-007
   4.3722298970205742E-007
   4.4171990487562596E-007
   4.2761016449954781E-007
   3.9349417879641635E-007
   3.4009973803872384E-007
   2.7078746178688107E-007
   1.9165937770182495E-007
   1.1111632358673518E-007
   3.8824187309494107E-008
   1.5784732743107099E-008
   4.5180956198542788E-008
   4.5180956642631998E-008
   1.5784732743107099E-008
   3.8824186754382595E-008
   1.1111632347571287E-007
   1.9165937770182495E-007
   2.7078746189790337E-007
   3.4009973826076845E-007
   3.9349417901846095E-007
   4.2761016416648090E-007
   4.4171990465358135E-007
   4.3722298959103512E-007
   4.1694164254479915E-007
   3.8439643579302185E-007
   3.4318859476467622E-007
   2.9655223754421201E-007
   2.4708696710895595E-007
   1.9664657591178525E-007
   1.4634335254726238E-007
   9.6626129542087824E-008
   4.7446828022046361E-008
   4.7602891739551012E-008
   9.7270457688480860E-008
   1.4775650558629394E-007
   1.9907524528850473E-007
   2.5071677867138931E-007
   3.0144449902902437E-007
   3.4918790603466476E-007
   3.9101679949471446E-007
   4.2324576443597550E-007
   4.4171990487562596E-007
   4.4231691598284328E-007
   4.2166175751034984E-007
   3.7798713847791987E-007
   3.1199456784758439E-007
   2.2749937633737005E-007
   1.3161267431449630E-007
   3.4257996772701915E-008
   5.3043286984966187E-008
   1.1897630725066222E-007
   1.5446944245933736E-007
   1.5446944268138196E-007
   1.1897630758372912E-007
   5.3043286651899280E-008
   3.4257996994746520E-008
   1.3161267420347400E-007
   2.2749937644839235E-007
   3.1199456740349518E-007
   3.7798713869996448E-007
   4.2166175784341675E-007
   4.4231691642693249E-007
   4.4171990432051444E-007
   4.2324576454699780E-007
   3.9101679949471446E-007
   3.4918790603466476E-007
   3.0144449902902437E-007
   2.5071677878241161E-007
   1.9907524584361624E-007
   1.4775650580833855E-007
   9.7270458243592373E-008
   4.7602891184439500E-008
   4.6341657067294761E-008
   9.5045502690460637E-008
   1.4480280652318100E-007
   1.9554848518232859E-007
   2.4667721820748056E-007
   2.9680468371928725E-007
   3.4363044743024318E-007
   3.8388969314517851E-007
   4.1344933532361239E-007
   4.2761016361136939E-007
   4.2166175751034984E-007
   3.9169450305465148E-007
   3.3559988010800623E-007
   2.5409521153818559E-007
   1.5151810706104385E-007
   3.6090394783805380E-008
   8.0604111052373639E-008
   1.8502483578597406E-007
   2.6380738715747754E-007
   3.0619956892241618E-007
   3.0619956858934927E-007
   2.6380738737952214E-007
   1.8502483634108557E-007
   8.0604111829529757E-008
   3.6090394672783077E-008
   1.5151810672797694E-007
   2.5409521153818559E-007
   3.3559988021902853E-007
   3.9169450294362917E-007
   4.2166175784341675E-007
   4.2761016361136939E-007
   4.1344933576770160E-007
   3.8388969325620081E-007
   3.4363044820739930E-007
   2.9680468438542107E-007
   2.4667721842952517E-007
   1.9554848518232859E-007
   1.4480280630113640E-007
   9.5045502579438335E-008
   4.6341657622406274E-008
   4.3704306396108450E-008
   9.0014968923135541E-008
   1.3753970851126951E-007
   1.8607889029631508E-007
   2.3488764577805910E-007
   2.8240224758668830E-007
   3.2607416700081160E-007
   3.6230056665864652E-007
   3.8651271960787881E-007
   3.9349417879641635E-007
   3.7798713825587527E-007
   3.3559988010800623E-007
   2.6394543217733712E-007
   1.6383002143793846E-007
   4.0198549378089865E-008
   9.7517550035064460E-008
   2.3596184139940135E-007
   3.5945457199648700E-007
   4.5246692637057606E-007
   5.0247407401560196E-007
   5.0247407346049044E-007
   4.5246692670364297E-007
   3.5945457244057621E-007
   2.3596184195451286E-007
   9.7517550035064460E-008
   4.0198549933201377E-008
   1.6383002132691615E-007
   2.6394543206631482E-007
   3.3559987977493932E-007
   3.7798713881098678E-007
   3.9349417912948326E-007
   3.8651272005196802E-007
   3.6230056754682494E-007
   3.2607416688978930E-007
   2.8240224769771061E-007
   2.3488764588908140E-007
   1.8607889007427048E-007
   1.3753970828922490E-007
   9.0014968257001726E-008
   4.3704306507130752E-008
   3.9867814050076333E-008
   8.2519690192128792E-008
   1.2645246882936334E-007
   1.7127373930225787E-007
   2.1605062927587682E-007
   2.5900393074707040E-007
   2.9731614159533848E-007
   3.2704407526562562E-007
   3.4320249309160999E-007
   3.4009973737259003E-007
   3.1199456740349518E-007
   2.5409521065000717E-007
   1.6383002199304997E-007
   4.2191777294142696E-008
   1.0517347215355244E-007
   2.6754058224387478E-007
   4.2970957159216283E-007
   5.7380492834990804E-007
   6.8209110959394081E-007
   7.4024235452441189E-007
   7.4024235463543420E-007
   6.8209110970496312E-007
   5.7380492879399725E-007
   4.2970957125909592E-007
   2.6754058168876327E-007
   1.0517347226457474E-007
   4.2191777849254208E-008
   1.6383002165998306E-007
   2.5409521120511869E-007
   3.1199456762553979E-007
   3.4009973814974614E-007
   3.4320249320263230E-007
   3.2704407537664792E-007
   2.9731614148431618E-007
   2.5900393163524882E-007
   2.1605063016405524E-007
   1.7127373941328017E-007
   1.2645246838527413E-007
   8.2519690525195699E-008
   3.9867814494165543E-008
   3.5150344079859508E-008
   7.3191401384065102E-008
   1.1248164044630471E-007
   1.5238430994823915E-007
   1.9173420851004153E-007
   2.2850320557932235E-007
   2.5958639338075074E-007
   2.8070169100224973E-007
   2.8647327388053867E-007
   2.7078746223097028E-007
   2.2749937611532545E-007
   1.5151810672797694E-007
   4.0198549711156772E-008
   1.0517347248661935E-007
   2.7816537129243812E-007
   4.6670739806131678E-007
   6.5374559810038591E-007
   8.1923439099185202E-007
   9.4327893529477791E-007
   1.0098013321080401E-006
   1.0098013315529286E-006
   9.4327893496171100E-007
   8.1923439088082972E-007
   6.5374559787834130E-007
   4.6670739795029448E-007
   2.7816537129243812E-007
   1.0517347215355244E-007
   4.0198549600134470E-008
   1.5151810650593234E-007
   2.2749937655941466E-007
   2.7078746256403718E-007
   2.8647327388053867E-007
   2.8070169089122743E-007
   2.5958639271461692E-007
   2.2850320524625545E-007
   1.9173420851004153E-007
   1.5238431005926145E-007
   1.1248164022426010E-007
   7.3191401828154312E-008
   3.5150343635770298E-008
   2.9994793093734984E-008
   6.2921434285101441E-008
   9.6979873132063688E-008
   1.3125504794153642E-007
   1.6431950355944025E-007
   1.9387465877152010E-007
   2.1651985449011590E-007
   2.2764440554823295E-007
   2.2151589951224793E-007
   1.9165937792386956E-007
   1.3161267409245170E-007
   3.6090394117671565E-008
   9.7517550035064460E-008
   2.6754058168876327E-007
   4.6670739783927218E-007
   6.8160939192818404E-007
   8.9340877040822164E-007
   1.0800133535271428E-006
   1.2195169168949249E-006
   1.2942217597622374E-006
   1.2942217603173489E-006
   1.2195169168949249E-006
   1.0800133535271428E-006
   8.9340877040822164E-007
   6.8160939115102792E-007
   4.6670739772824987E-007
   2.6754058213285248E-007
   9.7517549368930645E-008
   3.6090394450738472E-008
   1.3161267464756321E-007
   1.9165937803489186E-007
   2.2151589951224793E-007
   2.2764440543721065E-007
   2.1651985449011590E-007
   1.9387465866049780E-007
   1.6431950389250716E-007
   1.3125504805255872E-007
   9.6979872687974478E-008
   6.2921434285101441E-008
   2.9994792649645774E-008
   2.4928907826904378E-008
   5.2780421588849435E-008
   8.1590426193045573E-008
   1.1015911005607393E-007
   1.3679113763931383E-007
   1.5891737936701844E-007
   1.7285165343494668E-007
   1.7368010574170256E-007
   1.5535848885139814E-007
   1.1111632347571287E-007
   3.4257996883724218E-008
   8.0604111718507454E-008
   2.3596184206553517E-007
   4.2970957148114053E-007
   6.5374559876651972E-007
   8.9340877063026625E-007
   1.1282453994398978E-006
   1.3343470901538979E-006
   1.4880467050781832E-006
   1.5702407487605541E-006
   1.5702407485385095E-006
   1.4880467050781832E-006
   1.3343470901538979E-006
   1.1282453989958086E-006
   8.9340876996413243E-007
   6.5374559787834130E-007
   4.2970957203625204E-007
   2.3596184162144596E-007
   8.0604111385440547E-008
   3.4257996994746520E-008
   1.1111632347571287E-007
   1.5535848818526432E-007
   1.7368010529761335E-007
   1.7285165321290208E-007
   1.5891737870088463E-007
   1.3679113719522462E-007
   1.1015911038914084E-007
   8.1590426304067876E-008
   5.2780421699871738E-008
   2.4928908159971286E-008
   2.0505183107033531E-008
   4.3895220791512202E-008
   6.8056048241338374E-008
   9.1530525936356355E-008
   1.1238089159260056E-007
   1.2779584301902958E-007
   1.3383919716947190E-007
   1.2533996784913626E-007
   9.6000454918865330E-008
   3.8824187420516409E-008
   5.3043286318832372E-008
   1.8502483611904097E-007
   3.5945457199648700E-007
   5.7380492857195264E-007
   8.1923439054776281E-007
   1.0800133539712320E-006
   1.3343470900428755E-006
   1.5568481049887950E-006
   1.7224339606825012E-006
   1.8108811872252772E-006
   1.8108811875583442E-006
   1.7224339600163674E-006
   1.5568481043226612E-006
   1.3343470898208309E-006
   1.0800133530830536E-006
   8.1923439032571821E-007
   5.7380492879399725E-007
   3.5945457266262082E-007
   1.8502483623006327E-007
   5.3043286651899280E-008
   3.8824186754382595E-008
   9.6000454474776120E-008
   1.2533996807118086E-007
   1.3383919694742730E-007
   1.2779584257494037E-007
   1.1238089125953366E-007
   9.1530525603289448E-008
   6.8056048241338374E-008
   4.3895221235601412E-008
   2.0505183440100438E-008
   1.7228829696236403E-008
   3.7300070476753433E-008
   5.7984701373747782E-008
   7.7630041950271789E-008
   9.4113711712751069E-008
   1.0444097497952498E-007
   1.0448870857437953E-007
   8.8897549099797857E-008
   5.1189600225320930E-008
   1.5784732521062494E-008
   1.1897630791679603E-007
   2.6380738726849984E-007
   4.5246692603750915E-007
   6.8209110948291851E-007
   9.4327893518375561E-007
   1.2195169168949249E-006
   1.4880467049671608E-006
   1.7224339601273897E-006