# vtk DataFile Version 2.0
 Generated by Ninoy Rahman
ASCII
 
DATASET UNSTRUCTURED_GRID
 POINTS        64000  double
 -0.9750 -0.9750 -0.9750
 -0.9750 -0.9750 -0.9250
 -0.9750 -0.9750 -0.8750
 -0.9750 -0.9750 -0.8250
 -0.9750 -0.9750 -0.7750
 -0.9750 -0.9750 -0.7250
 -0.9750 -0.9750 -0.6750
 -0.9750 -0.9750 -0.6250
 -0.9750 -0.9750 -0.5750
 -0.9750 -0.9750 -0.5250
 -0.9750 -0.9750 -0.4750
 -0.9750 -0.9750 -0.4250
 -0.9750 -0.9750 -0.3750
 -0.9750 -0.9750 -0.3250
 -0.9750 -0.9750 -0.2750
 -0.9750 -0.9750 -0.2250
 -0.9750 -0.9750 -0.1750
 -0.9750 -0.9750 -0.1250
 -0.9750 -0.9750 -0.0750
 -0.9750 -0.9750 -0.0250
 -0.9750 -0.9750  0.0250
 -0.9750 -0.9750  0.0750
 -0.9750 -0.9750  0.1250
 -0.9750 -0.9750  0.1750
 -0.9750 -0.9750  0.2250
 -0.9750 -0.9750  0.2750
 -0.9750 -0.9750  0.3250
 -0.9750 -0.9750  0.3750
 -0.9750 -0.9750  0.4250
 -0.9750 -0.9750  0.4750
 -0.9750 -0.9750  0.5250
 -0.9750 -0.9750  0.5750
 -0.9750 -0.9750  0.6250
 -0.9750 -0.9750  0.6750
 -0.9750 -0.9750  0.7250
 -0.9750 -0.9750  0.7750
 -0.9750 -0.9750  0.8250
 -0.9750 -0.9750  0.8750
 -0.9750 -0.9750  0.9250
 -0.9750 -0.9750  0.9750
 -0.9750 -0.9250 -0.9750
 -0.9750 -0.9250 -0.9250
 -0.9750 -0.9250 -0.8750
 -0.9750 -0.9250 -0.8250
 -0.9750 -0.9250 -0.7750
 -0.9750 -0.9250 -0.7250
 -0.9750 -0.9250 -0.6750
 -0.9750 -0.9250 -0.6250
 -0.9750 -0.9250 -0.5750
 -0.9750 -0.9250 -0.5250
 -0.9750 -0.9250 -0.4750
 -0.9750 -0.9250 -0.4250
 -0.9750 -0.9250 -0.3750
 -0.9750 -0.9250 -0.3250
 -0.9750 -0.9250 -0.2750
 -0.9750 -0.9250 -0.2250
 -0.9750 -0.9250 -0.1750
 -0.9750 -0.9250 -0.1250
 -0.9750 -0.9250 -0.0750
 -0.9750 -0.9250 -0.0250
 -0.9750 -0.9250  0.0250
 -0.9750 -0.9250  0.0750
 -0.9750 -0.9250  0.1250
 -0.9750 -0.9250  0.1750
 -0.9750 -0.9250  0.2250
 -0.9750 -0.9250  0.2750
 -0.9750 -0.9250  0.3250
 -0.9750 -0.9250  0.3750
 -0.9750 -0.9250  0.4250
 -0.9750 -0.9250  0.4750
 -0.9750 -0.9250  0.5250
 -0.9750 -0.9250  0.5750
 -0.9750 -0.9250  0.6250
 -0.9750 -0.9250  0.6750
 -0.9750 -0.9250  0.7250
 -0.9750 -0.9250  0.7750
 -0.9750 -0.9250  0.8250
 -0.9750 -0.9250  0.8750
 -0.9750 -0.9250  0.9250
 -0.9750 -0.9250  0.9750
 -0.9750 -0.8750 -0.9750
 -0.9750 -0.8750 -0.9250
 -0.9750 -0.8750 -0.8750
 -0.9750 -0.8750 -0.8250
 -0.9750 -0.8750 -0.7750
 -0.9750 -0.8750 -0.7250
 -0.9750 -0.8750 -0.6750
 -0.9750 -0.8750 -0.6250
 -0.9750 -0.8750 -0.5750
 -0.9750 -0.8750 -0.5250
 -0.9750 -0.8750 -0.4750
 -0.9750 -0.8750 -0.4250
 -0.9750 -0.8750 -0.3750
 -0.9750 -0.8750 -0.3250
 -0.9750 -0.8750 -0.2750
 -0.9750 -0.8750 -0.2250
 -0.9750 -0.8750 -0.1750
 -0.9750 -0.8750 -0.1250
 -0.9750 -0.8750 -0.0750
 -0.9750 -0.8750 -0.0250
 -0.9750 -0.8750  0.0250
 -0.9750 -0.8750  0.0750
 -0.9750 -0.8750  0.1250
 -0.9750 -0.8750  0.1750
 -0.9750 -0.8750  0.2250
 -0.9750 -0.8750  0.2750
 -0.9750 -0.8750  0.3250
 -0.9750 -0.8750  0.3750
 -0.9750 -0.8750  0.4250
 -0.9750 -0.8750  0.4750
 -0.9750 -0.8750  0.5250
 -0.9750 -0.8750  0.5750
 -0.9750 -0.8750  0.6250
 -0.9750 -0.8750  0.6750
 -0.9750 -0.8750  0.7250
 -0.9750 -0.8750  0.7750
 -0.9750 -0.8750  0.8250
 -0.9750 -0.8750  0.8750
 -0.9750 -0.8750  0.9250
 -0.9750 -0.8750  0.9750
 -0.9750 -0.8250 -0.9750
 -0.9750 -0.8250 -0.9250
 -0.9750 -0.8250 -0.8750
 -0.9750 -0.8250 -0.8250
 -0.9750 -0.8250 -0.7750
 -0.9750 -0.8250 -0.7250
 -0.9750 -0.8250 -0.6750
 -0.9750 -0.8250 -0.6250
 -0.9750 -0.8250 -0.5750
 -0.9750 -0.8250 -0.5250
 -0.9750 -0.8250 -0.4750
 -0.9750 -0.8250 -0.4250
 -0.9750 -0.8250 -0.3750
 -0.9750 -0.8250 -0.3250
 -0.9750 -0.8250 -0.2750
 -0.9750 -0.8250 -0.2250
 -0.9750 -0.8250 -0.1750
 -0.9750 -0.8250 -0.1250
 -0.9750 -0.8250 -0.0750
 -0.9750 -0.8250 -0.0250
 -0.9750 -0.8250  0.0250
 -0.9750 -0.8250  0.0750
 -0.9750 -0.8250  0.1250
 -0.9750 -0.8250  0.1750
 -0.9750 -0.8250  0.2250
 -0.9750 -0.8250  0.2750
 -0.9750 -0.8250  0.3250
 -0.9750 -0.8250  0.3750
 -0.9750 -0.8250  0.4250
 -0.9750 -0.8250  0.4750
 -0.9750 -0.8250  0.5250
 -0.9750 -0.8250  0.5750
 -0.9750 -0.8250  0.6250
 -0.9750 -0.8250  0.6750
 -0.9750 -0.8250  0.7250
 -0.9750 -0.8250  0.7750
 -0.9750 -0.8250  0.8250
 -0.9750 -0.8250  0.8750
 -0.9750 -0.8250  0.9250
 -0.9750 -0.8250  0.9750
 -0.9750 -0.7750 -0.9750
 -0.9750 -0.7750 -0.9250
 -0.9750 -0.7750 -0.8750
 -0.9750 -0.7750 -0.8250
 -0.9750 -0.7750 -0.7750
 -0.9750 -0.7750 -0.7250
 -0.9750 -0.7750 -0.6750
 -0.9750 -0.7750 -0.6250
 -0.9750 -0.7750 -0.5750
 -0.9750 -0.7750 -0.5250
 -0.9750 -0.7750 -0.4750
 -0.9750 -0.7750 -0.4250
 -0.9750 -0.7750 -0.3750
 -0.9750 -0.7750 -0.3250
 -0.9750 -0.7750 -0.2750
 -0.9750 -0.7750 -0.2250
 -0.9750 -0.7750 -0.1750
 -0.9750 -0.7750 -0.1250
 -0.9750 -0.7750 -0.0750
 -0.9750 -0.7750 -0.0250
 -0.9750 -0.7750  0.0250
 -0.9750 -0.7750  0.0750
 -0.9750 -0.7750  0.1250
 -0.9750 -0.7750  0.1750
 -0.9750 -0.7750  0.2250
 -0.9750 -0.7750  0.2750
 -0.9750 -0.7750  0.3250
 -0.9750 -0.7750  0.3750
 -0.9750 -0.7750  0.4250
 -0.9750 -0.7750  0.4750
 -0.9750 -0.7750  0.5250
 -0.9750 -0.7750  0.5750
 -0.9750 -0.7750  0.6250
 -0.9750 -0.7750  0.6750
 -0.9750 -0.7750  0.7250
 -0.9750 -0.7750  0.7750
 -0.9750 -0.7750  0.8250
 -0.9750 -0.7750  0.8750
 -0.9750 -0.7750  0.9250
 -0.9750 -0.7750  0.9750
 -0.9750 -0.7250 -0.9750
 -0.9750 -0.7250 -0.9250
 -0.9750 -0.7250 -0.8750
 -0.9750 -0.7250 -0.8250
 -0.9750 -0.7250 -0.7750
 -0.9750 -0.7250 -0.7250
 -0.9750 -0.7250 -0.6750
 -0.9750 -0.7250 -0.6250
 -0.9750 -0.7250 -0.5750
 -0.9750 -0.7250 -0.5250
 -0.9750 -0.7250 -0.4750
 -0.9750 -0.7250 -0.4250
 -0.9750 -0.7250 -0.3750
 -0.9750 -0.7250 -0.3250
 -0.9750 -0.7250 -0.2750
 -0.9750 -0.7250 -0.2250
 -0.9750 -0.7250 -0.1750
 -0.9750 -0.7250 -0.1250
 -0.9750 -0.7250 -0.0750
 -0.9750 -0.7250 -0.0250
 -0.9750 -0.7250  0.0250
 -0.9750 -0.7250  0.0750
 -0.9750 -0.7250  0.1250
 -0.9750 -0.7250  0.1750
 -0.9750 -0.7250  0.2250
 -0.9750 -0.7250  0.2750
 -0.9750 -0.7250  0.3250
 -0.9750 -0.7250  0.3750
 -0.9750 -0.7250  0.4250
 -0.9750 -0.7250  0.4750
 -0.9750 -0.7250  0.5250
 -0.9750 -0.7250  0.5750
 -0.9750 -0.7250  0.6250
 -0.9750 -0.7250  0.6750
 -0.9750 -0.7250  0.7250
 -0.9750 -0.7250  0.7750
 -0.9750 -0.7250  0.8250
 -0.9750 -0.7250  0.8750
 -0.9750 -0.7250  0.9250
 -0.9750 -0.7250  0.9750
 -0.9750 -0.6750 -0.9750
 -0.9750 -0.6750 -0.9250
 -0.9750 -0.6750 -0.8750
 -0.9750 -0.6750 -0.8250
 -0.9750 -0.6750 -0.7750
 -0.9750 -0.6750 -0.7250
 -0.9750 -0.6750 -0.6750
 -0.9750 -0.6750 -0.6250
 -0.9750 -0.6750 -0.5750
 -0.9750 -0.6750 -0.5250
 -0.9750 -0.6750 -0.4750
 -0.9750 -0.6750 -0.4250
 -0.9750 -0.6750 -0.3750
 -0.9750 -0.6750 -0.3250
 -0.9750 -0.6750 -0.2750
 -0.9750 -0.6750 -0.2250
 -0.9750 -0.6750 -0.1750
 -0.9750 -0.6750 -0.1250
 -0.9750 -0.6750 -0.0750
 -0.9750 -0.6750 -0.0250
 -0.9750 -0.6750  0.0250
 -0.9750 -0.6750  0.0750
 -0.9750 -0.6750  0.1250
 -0.9750 -0.6750  0.1750
 -0.9750 -0.6750  0.2250
 -0.9750 -0.6750  0.2750
 -0.9750 -0.6750  0.3250
 -0.9750 -0.6750  0.3750
 -0.9750 -0.6750  0.4250
 -0.9750 -0.6750  0.4750
 -0.9750 -0.6750  0.5250
 -0.9750 -0.6750  0.5750
 -0.9750 -0.6750  0.6250
 -0.9750 -0.6750  0.6750
 -0.9750 -0.6750  0.7250
 -0.9750 -0.6750  0.7750
 -0.9750 -0.6750  0.8250
 -0.9750 -0.6750  0.8750
 -0.9750 -0.6750  0.9250
 -0.9750 -0.6750  0.9750
 -0.9750 -0.6250 -0.9750
 -0.9750 -0.6250 -0.9250
 -0.9750 -0.6250 -0.8750
 -0.9750 -0.6250 -0.8250
 -0.9750 -0.6250 -0.7750
 -0.9750 -0.6250 -0.7250
 -0.9750 -0.6250 -0.6750
 -0.9750 -0.6250 -0.6250
 -0.9750 -0.6250 -0.5750
 -0.9750 -0.6250 -0.5250
 -0.9750 -0.6250 -0.4750
 -0.9750 -0.6250 -0.4250
 -0.9750 -0.6250 -0.3750
 -0.9750 -0.6250 -0.3250
 -0.9750 -0.6250 -0.2750
 -0.9750 -0.6250 -0.2250
 -0.9750 -0.6250 -0.1750
 -0.9750 -0.6250 -0.1250
 -0.9750 -0.6250 -0.0750
 -0.9750 -0.6250 -0.0250
 -0.9750 -0.6250  0.0250
 -0.9750 -0.6250  0.0750
 -0.9750 -0.6250  0.1250
 -0.9750 -0.6250  0.1750
 -0.9750 -0.6250  0.2250
 -0.9750 -0.6250  0.2750
 -0.9750 -0.6250  0.3250
 -0.9750 -0.6250  0.3750
 -0.9750 -0.6250  0.4250
 -0.9750 -0.6250  0.4750
 -0.9750 -0.6250  0.5250
 -0.9750 -0.6250  0.5750
 -0.9750 -0.6250  0.6250
 -0.9750 -0.6250  0.6750
 -0.9750 -0.6250  0.7250
 -0.9750 -0.6250  0.7750
 -0.9750 -0.6250  0.8250
 -0.9750 -0.6250  0.8750
 -0.9750 -0.6250  0.9250
 -0.9750 -0.6250  0.9750
 -0.9750 -0.5750 -0.9750
 -0.9750 -0.5750 -0.9250
 -0.9750 -0.5750 -0.8750
 -0.9750 -0.5750 -0.8250
 -0.9750 -0.5750 -0.7750
 -0.9750 -0.5750 -0.7250
 -0.9750 -0.5750 -0.6750
 -0.9750 -0.5750 -0.6250
 -0.9750 -0.5750 -0.5750
 -0.9750 -0.5750 -0.5250
 -0.9750 -0.5750 -0.4750
 -0.9750 -0.5750 -0.4250
 -0.9750 -0.5750 -0.3750
 -0.9750 -0.5750 -0.3250
 -0.9750 -0.5750 -0.2750
 -0.9750 -0.5750 -0.2250
 -0.9750 -0.5750 -0.1750
 -0.9750 -0.5750 -0.1250
 -0.9750 -0.5750 -0.0750
 -0.9750 -0.5750 -0.0250
 -0.9750 -0.5750  0.0250
 -0.9750 -0.5750  0.0750
 -0.9750 -0.5750  0.1250
 -0.9750 -0.5750  0.1750
 -0.9750 -0.5750  0.2250
 -0.9750 -0.5750  0.2750
 -0.9750 -0.5750  0.3250
 -0.9750 -0.5750  0.3750
 -0.9750 -0.5750  0.4250
 -0.9750 -0.5750  0.4750
 -0.9750 -0.5750  0.5250
 -0.9750 -0.5750  0.5750
 -0.9750 -0.5750  0.6250
 -0.9750 -0.5750  0.6750
 -0.9750 -0.5750  0.7250
 -0.9750 -0.5750  0.7750
 -0.9750 -0.5750  0.8250
 -0.9750 -0.5750  0.8750
 -0.9750 -0.5750  0.9250
 -0.9750 -0.5750  0.9750
 -0.9750 -0.5250 -0.9750
 -0.9750 -0.5250 -0.9250
 -0.9750 -0.5250 -0.8750
 -0.9750 -0.5250 -0.8250
 -0.9750 -0.5250 -0.7750
 -0.9750 -0.5250 -0.7250
 -0.9750 -0.5250 -0.6750
 -0.9750 -0.5250 -0.6250
 -0.9750 -0.5250 -0.5750
 -0.9750 -0.5250 -0.5250
 -0.9750 -0.5250 -0.4750
 -0.9750 -0.5250 -0.4250
 -0.9750 -0.5250 -0.3750
 -0.9750 -0.5250 -0.3250
 -0.9750 -0.5250 -0.2750
 -0.9750 -0.5250 -0.2250
 -0.9750 -0.5250 -0.1750
 -0.9750 -0.5250 -0.1250
 -0.9750 -0.5250 -0.0750
 -0.9750 -0.5250 -0.0250
 -0.9750 -0.5250  0.0250
 -0.9750 -0.5250  0.0750
 -0.9750 -0.5250  0.1250
 -0.9750 -0.5250  0.1750
 -0.9750 -0.5250  0.2250
 -0.9750 -0.5250  0.2750
 -0.9750 -0.5250  0.3250
 -0.9750 -0.5250  0.3750
 -0.9750 -0.5250  0.4250
 -0.9750 -0.5250  0.4750
 -0.9750 -0.5250  0.5250
 -0.9750 -0.5250  0.5750
 -0.9750 -0.5250  0.6250
 -0.9750 -0.5250  0.6750
 -0.9750 -0.5250  0.7250
[...]
 POINT_DATA        64000
SCALARS Error double 1
LOOKUP_TABLE DEFAULT
   3.9910951210586632E-009
   7.5418973288776670E-009
   1.0786002424545416E-008
   1.3790416475423228E-008
   1.6530579016738045E-008
   1.8928054457134635E-008
   2.0867054972839583E-008
   2.2207674255092513E-008
   2.2802081223183279E-008
   2.2515241115961260E-008
   2.1249499382314241E-008
   1.8970564674702928E-008
   1.5730908686784062E-008
   1.1685589718091194E-008
   7.0954635500442009E-009
   2.3139937743721362E-009
   2.2435198143710977E-009
   6.1458562683469609E-009
   9.0006683217680461E-009
   1.0508951819865331E-008
   1.0508951486798424E-008
   9.0006684327903486E-009
   6.1458568234584732E-009
   2.2435200364157026E-009
   2.3139936633498337E-009
   7.0954634390218985E-009
   1.1685590384225009E-008
   1.5730908464739457E-008
   1.8970564674702928E-008
   2.1249499271291938E-008
   2.2515241782095075E-008
   2.2802081556250187E-008
   2.2207675032248630E-008
   2.0867054861817280E-008
   1.8928054457134635E-008
   1.6530579016738045E-008
   1.3790416142356321E-008
   1.0786002868634625E-008
   7.5418978839891793E-009
   3.9910948990140582E-009
   7.5418976619445743E-009
   1.4539946802116788E-008
   2.1026637431198480E-008
   2.7080293896197816E-008
   3.2643239666896307E-008
   3.7559409471477068E-008
   4.1598538724763046E-008
   4.4479765204386013E-008
   4.5902748047055297E-008
   4.5588700481324906E-008
   4.3329932752911304E-008
   3.9043012156625423E-008
   3.2817467965351454E-008
   2.4949768584470178E-008
   1.5951990950391348E-008
   6.5269916138532835E-009
   2.4927966357779496E-009
   1.0238302317056025E-008
   1.5915784135067668E-008
   1.8918803190715039E-008
   1.8918803079692736E-008
   1.5915784801201482E-008
   1.0238302317056025E-008
   2.4927958586218324E-009
   6.5269920579424934E-009
   1.5951990950391348E-008
   2.4949768473447875E-008
   3.2817467410239942E-008
   3.9043012600714633E-008
   4.3329933197000514E-008
   4.5588700481324906E-008
   4.5902747825010692E-008
   4.4479764760296803E-008
   4.1598538613740743E-008
   3.7559409471477068E-008
   3.2643240110985516E-008
   2.7080293785175513E-008
   2.1026637764265388E-008
   1.4539947135183695E-008
   7.5418978839891793E-009
   1.0786002424545416E-008
   2.1026637320176178E-008
   3.0640137094195552E-008
   3.9692783393441289E-008
   4.8086828297044804E-008
   5.5588202485523652E-008
   6.1851863519812866E-008
   6.6452311653364404E-008
   6.8927780594307819E-008
   6.8840960820715225E-008
   6.5854205866244797E-008
   5.9811993580183298E-008
   5.0818335206592735E-008
   3.9293004627793948E-008
   2.5989547958182868E-008
   1.1961329704490709E-008
   1.5299345124120123E-009
   1.3156800093838683E-008
   2.1700320984585630E-008
   2.6225809190982829E-008
   2.6225808968938225E-008
   2.1700321650719445E-008
   1.3156800204860986E-008
   1.5299342903674074E-009
   1.1961329926535313E-008
   2.5989548402272078E-008
   3.9293005182905461E-008
   5.0818334984548130E-008
   5.9811994024272508E-008
   6.5854205644200192E-008
   6.8840960598670620E-008
   6.8927780705330122E-008
   6.6452311875409009E-008
   6.1851863852879774E-008
   5.5588202596545955E-008
   4.8086827852955594E-008
   3.9692783948552801E-008
   3.0640136761128645E-008
   2.1026637431198480E-008
   1.0786002646590021E-008
   1.3790416253378623E-008
   2.7080294118242421E-008
   3.9692783726508196E-008
   5.1682847668210741E-008
   6.2913402931741302E-008
   7.3073215145491588E-008
   8.1700493814729214E-008
   8.8217613658514438E-008
   9.1986595895932055E-008
   9.2389109140889047E-008
   8.8928743924299170E-008
   8.1346202884802210E-008
   6.9730663465605858E-008
   5.4604490595799859E-008
   3.6956307236657437E-008
   1.8201416041030427E-008
   5.9709681643482782E-011
   1.5641497763674295E-008
   2.7212739062143498E-008
   3.3352582029522182E-008
   3.3352582029522182E-008
   2.7212739284188103E-008
   1.5641497541629690E-008
   5.9709792665785244E-011
   1.8201416152052730E-008
   3.6956307680746647E-008
   5.4604490373755254E-008
   6.9730664131739672E-008
   8.1346202551735303E-008
   8.8928743924299170E-008
   9.2389108696799838E-008
   9.1986595340820543E-008
   8.8217613214425228E-008
   8.1700493703706911E-008
   7.3073215034469285E-008
   6.2913403042763605E-008
   5.1682847557188438E-008
   3.9692783615485894E-008
   2.7080293563130908E-008
   1.3790416253378623E-008
   1.6530579460827255E-008
   3.2643239999963214E-008
   4.8086828408067106E-008
   6.2913403042763605E-008
   7.6952815231123850E-008
   8.9820424209463567E-008
   1.0093683533440867E-007
   1.0956430174235976E-007
   1.1487151840849918E-007
   1.1603232741297376E-007
   1.1235659713726420E-007
   1.0344229461889398E-007
   8.9327389041216065E-008
   7.0611083979876810E-008
   4.8509610439673168E-008
   2.4815862031957181E-008
   1.7465706658725821E-009
   1.8315617356101654E-008
   3.3150019063121761E-008
   4.1036782749692691E-008
   4.1036782305603481E-008
   3.3150019285166366E-008
   1.8315617023034747E-008
   1.7465706658725821E-009
   2.4815861698890274E-008
   4.8509610550695470E-008
   7.0611083757832205E-008
   8.9327388819171460E-008
   1.0344229406378247E-007
   1.1235659691521960E-007
   1.1603232763501836E-007
   1.1487151796440997E-007
   1.0956430140929285E-007
   1.0093683489031946E-007
   8.9820424320485870E-008
   7.6952815009079245E-008
   6.2913403375830512E-008
   4.8086827741933291E-008
   3.2643239999963214E-008
   1.6530578572648835E-008
   1.8928054790201543E-008
   3.7559409582499370E-008
   5.5588203040635165E-008
   7.3073215145491588E-008
   8.9820424098441265E-008
   1.0537879202576761E-007
   1.1905360430830569E-007
   1.2994167064572792E-007
   1.3700288858942145E-007
   1.3917640839800072E-007
   1.3554117916925179E-007
   1.2550900196917070E-007
   1.0902415759073136E-007
   8.6730505999277341E-008
   6.0059382578359077E-008
   3.1194993588279374E-008
   2.8917063188416137E-009
   2.1851114251347781E-008
   4.0212789098603707E-008
   4.9995700246441288E-008
   4.9995699469285171E-008
   4.0212788210425288E-008
   2.1851114140325478E-008
   2.8917063188416137E-009
   3.1194993477257071E-008
   6.0059382245292170E-008
   8.6730505777232736E-008
   1.0902415747970906E-007
   1.2550900130303688E-007
   1.3554117872516258E-007
   1.3917640795391151E-007
   1.3700288847839914E-007
   1.2994167053470562E-007
   1.1905360453035030E-007
   1.0537879224781221E-007
   8.9820424764575080E-008
   7.3073214923446983E-008
   5.5588202374501350E-008
   3.7559409027387858E-008
   1.8928054568156938E-008
   2.0867055083861885E-008
   4.1598538391696138E-008
   6.1851863519812866E-008
   8.1700493925751516E-008
   1.0093683611156479E-007
   1.1905360441932800E-007
   1.3524774800099948E-007
   1.4845100937410649E-007
   1.5740492831373132E-007
   1.6079214149034016E-007
   1.5742649284167243E-007
   1.4649018198475972E-007
   1.2778791858014671E-007
   1.0196961719444175E-007
   7.0661022033569054E-008
   3.6443149054044000E-008
   2.6422219967514593E-009
   2.7068184360601322E-008
   4.9199895935103655E-008
   6.1017834229737389E-008
   6.1017834229737389E-008
   4.9199896046125957E-008
   2.7068184027534414E-008
   2.6422222187960642E-009
   3.6443149276088604E-008
   7.0661022588680567E-008
   1.0196961741648636E-007
   1.2778791880219131E-007
   1.4649018209578202E-007
   1.5742649228656092E-007
   1.6079214093522864E-007
   1.5740492842475362E-007
   1.4845100915206189E-007
   1.3524774755691027E-007
   1.1905360430830569E-007
   1.0093683511236407E-007
   8.1700493592684609E-008
   6.1851862964701354E-008
   4.1598538502718441E-008
   2.0867054861817280E-008
   2.2207674477137118E-008
   4.4479764649274500E-008
   6.6452311875409009E-008
   8.8217613325447530E-008
   1.0956430163133746E-007
   1.2994167053470562E-007
   1.4845100981819570E-007
   1.6386775125720732E-007
   1.7471576718719461E-007
   1.7941016450251368E-007
   1.7647505468065816E-007
   1.6482595244227127E-007
   1.4408352677630631E-007
   1.1486071316291202E-007
   7.8946871373553051E-008
   3.9310947830273335E-008
   1.3114753727450079E-010
   3.4990083053187959E-008
   6.1056051992025573E-008
   7.5006220567885862E-008
   7.5006220789930467E-008
   6.1056052103047875E-008
   3.4990083386254867E-008
   1.3114731522989587E-010
   3.9310947941295638E-008
   7.8946871040486144E-008
   1.1486071260780051E-007
   1.4408352688732862E-007
   1.6482595222022667E-007
   1.7647505501372507E-007
   1.7941016428046908E-007
   1.7471576663208310E-007
   1.6386775125720732E-007
   1.4845100926308419E-007
   1.2994167042368332E-007
   1.0956430118724825E-007
   8.8217613325447530E-008
   6.6452311764386707E-008
   4.4479764982341408E-008
   2.2207674366114816E-008
   2.2802081001138674E-008
   4.5902747602966087E-008
   6.8927780372263214E-008
   9.1986595784909753E-008
   1.1487151807543228E-007
   1.3700288903351066E-007
   1.5740492875782053E-007
   1.7471576729821692E-007
   1.8725639616690160E-007
   1.9318001098778126E-007
   1.9071330414899279E-007
   1.7848232969353006E-007
   1.5588773105701392E-007
   1.2346235578331033E-007
   8.3118332550036200E-008
   3.8184070350055777E-008
   6.8437078226679660E-009
   4.6848108392616439E-008
   7.6871540244383141E-008
   9.2974754006824867E-008
   9.2974754561936379E-008
   7.6871540133360838E-008
   4.6848108392616439E-008
   6.8437080447125709E-009
   3.8184070016988869E-008
   8.3118332216969293E-008
   1.2346235589433263E-007
   1.5588773161212544E-007
   1.7848233024864157E-007
   1.9071330426001509E-007
   1.9318001076573665E-007
   1.8725639627792390E-007
   1.7471576740923922E-007
   1.5740492853577592E-007
   1.3700288825635454E-007
   1.1487151818645458E-007
   9.1986595451842845E-008
   6.8927780816352424E-008
   4.5902747158876878E-008
   2.2802082000339396E-008
   2.2515241560050470E-008
   4.5588700037235697E-008
   6.8840960598670620E-008
   9.2389109029866745E-008
   1.1603232774604066E-007
   1.3917640795391151E-007
   1.6079214193442937E-007
   1.7941016439149138E-007
   1.9318001076573665E-007
   2.0002007528052701E-007
   1.9787602856258246E-007
   1.8508464816324732E-007
   1.6080776576998801E-007
   1.2546171057614686E-007
   8.1033084686765733E-008
   3.1158515101381568E-008
   1.9129328232558862E-008
   6.4018016665556843E-008
   9.7819874089744019E-008
   1.1598595972550640E-007
   1.1598595972550640E-007
   9.7819873534632507E-008
   6.4018016776579145E-008
   1.9129328898692677E-008
   3.1158515434448475E-008
   8.1033084464721128E-008
   1.2546171124228067E-007
   1.6080776543692110E-007
   1.8508464838529193E-007
   1.9787602922871628E-007
   2.0002007616870543E-007
   1.9318001076573665E-007
   1.7941016428046908E-007
   1.6079214060216174E-007
   1.3917640828697841E-007
   1.1603232785706297E-007
   9.2389109251911350E-008
   6.8840960487648317E-008
   4.5588700370302604E-008
   2.2515241004938957E-008
   2.1249498605158124E-008
   4.3329933308022817E-008
   6.5854205755222495E-008
   8.8928743702254565E-008
   1.1235659624908578E-007
   1.3554117894720719E-007
   1.5742649273065012E-007
   1.7647505490270277E-007
   1.9071330459308200E-007
   1.9787602889564937E-007
   1.9567354414551374E-007
   1.8218413111448228E-007
   1.5633815730886624E-007
   1.1841401403867025E-007
   7.0422333409148052E-008
   1.6234058874964319E-008
   3.8669218938025551E-008
   8.7867007003694653E-008
   1.2501745150217403E-007
   1.4501708223146892E-007
   1.4501708267555813E-007
   1.2501745150217403E-007
   8.7867006892672350E-008
   3.8669218938025551E-008
   1.6234058985986621E-008
   7.0422333187103447E-008
   1.1841401459378176E-007
   1.5633815775295545E-007
   1.8218413055937077E-007
   1.9567354370142453E-007
   1.9787602867360476E-007
   1.9071330448205970E-007
   1.7647505468065816E-007
   1.5742649284167243E-007
   1.3554117961334100E-007
   1.1235659680419730E-007
   8.8928744146343774E-008
   6.5854206310334007E-008
   4.3329932974955909E-008
   2.1249498827202729E-008
   1.8970564563680625E-008
   3.9043012489692330E-008
   5.9811994135294810E-008
   8.1346202884802210E-008
   1.0344229461889398E-007
   1.2550900196917070E-007
   1.4649018220680432E-007
   1.6482595222022667E-007
   1.7848232991557467E-007
   1.8508464827426963E-007
   1.8218413144754919E-007
   1.6766608801344063E-007
   1.4026967332103624E-007
   1.0013703322098166E-007
   4.9257624201715089E-008
   8.3555409258195823E-009
   6.6901559070409178E-008
   1.1950019818129931E-007
   1.5929820651461313E-007
   1.8074996477324135E-007
   1.8074996488426365E-007
   1.5929820673665773E-007
   1.1950019829232161E-007
   6.6901559292453783E-008
   8.3555405927526749E-009
   4.9257624201715089E-008
   1.0013703333200397E-007
   1.4026967321001393E-007
   1.6766608834650754E-007
   1.8218413133652689E-007
   1.8508464871835884E-007
   1.7848232991557467E-007
   1.6482595244227127E-007
   1.4649018231782662E-007
   1.2550900163610379E-007
   1.0344229461889398E-007
   8.1346202662757605E-008
   5.9811994135294810E-008
   3.9043012378670028E-008
   1.8970564785725230E-008
   1.5730908575761759E-008
   3.2817467965351454E-008
   5.0818335206592735E-008
   6.9730664020717370E-008
   8.9327389152238368E-008
   1.0902415770175367E-007
   1.2778791924628052E-007
   1.4408352722039552E-007
   1.5588773139008083E-007
   1.6080776554794340E-007
   1.5633815708682164E-007
   1.4026967321001393E-007
   1.1122501752947045E-007
   6.9240070676990229E-008
   1.6250968126740872E-008
   4.3689100559518579E-008
   1.0462456601079140E-007
   1.5941969833122016E-007
   2.0091749741713016E-007
   2.2329981330670989E-007
   2.2329981308466529E-007
   2.0091749719508556E-007
   1.5941969888633167E-007
   1.0462456612181370E-007
   4.3689100226451671E-008
   1.6250968348785477E-008
   6.9240070899034833E-008
   1.1122501775151505E-007
   1.4026967365410314E-007
   1.5633815764193315E-007
   1.6080776588101031E-007
   1.5588773161212544E-007
   1.4408352666528401E-007
   1.2778791902423592E-007
   1.0902415770175367E-007
   8.9327389374282973E-008
   6.9730663687650463E-008
   5.0818335206592735E-008
   3.2817467299217640E-008
   1.5730908686784062E-008
   1.1685590162180404E-008
   2.4949768695492480E-008
   3.9293004738816251E-008
   5.4604490262732952E-008
   7.0611084423966020E-008
   8.6730506443366551E-008
   1.0196961786057557E-007
   1.1486071327393432E-007
   1.2346235567228803E-007
   1.2546171057614686E-007
   1.1841401426071485E-007
   1.0013703299893706E-007
   6.9240070788012531E-008
   2.5710299000891723E-008
   2.8582725741799209E-008
   8.9645083356515443E-008
   1.5154960675278772E-007
   2.0714686155276496E-007
   2.4923159591683230E-007
   2.7192705231993131E-007
   2.7192705165379749E-007
   2.4923159569478770E-007
   2.0714686221889878E-007
   1.5154960675278772E-007
   8.9645083245493140E-008
   2.8582725630776906E-008
   2.5710299444980933E-008
   6.9240071343124043E-008
   1.0013703388711548E-007
   1.1841401448275946E-007
   1.2546171146432528E-007
   1.2346235589433263E-007
   1.1486071294086742E-007
   1.0196961774955327E-007
   8.6730505999277341E-008
   7.0611083979876810E-008
   5.4604490151710650E-008
   3.9293004960860856E-008
   2.4949768140380968E-008
   1.1685589496046589E-008
   7.0954634390218985E-009
   1.5951991172435953E-008
   2.5989547514093658E-008
   3.6956307569724345E-008
   4.8509610772740075E-008
   6.0059382911425985E-008
   7.0661023143792079E-008
   7.8946871595597656E-008
   8.3118332772080805E-008
   8.1033084353698825E-008
   7.0422333964259565E-008
   4.9257624756826601E-008
   1.6250968348785477E-008
   2.8582725852821511E-008
   8.3433470909888285E-008
   1.4445028095888546E-007
   2.0591129934466323E-007
   2.6090055316174698E-007
   3.0243428494891589E-007
   3.2480750467023256E-007
   3.2480750467023256E-007
   3.0243428550402740E-007
   2.6090055327276929E-007
   2.0591129978875244E-007
   1.4445028106990776E-007
   8.3433471020910588E-008
   2.8582725852821511E-008
   1.6250968348785477E-008
   4.9257624090692786E-008
   7.0422333853237262E-008
   8.1033084353698825E-008
   8.3118332216969293E-008
   7.8946871595597656E-008
   7.0661023254814381E-008
   6.0059382800403682E-008
   4.8509610772740075E-008
   3.6956307347679740E-008
   2.5989547958182868E-008
   1.5951991394480558E-008
   7.0954629949326886E-009
   2.3139935523275312E-009
   6.5269918358978884E-009
   1.1961330259602221E-008
   1.8201415596941217E-008
   2.4815861920934879E-008
   3.1194993921346281E-008
   3.6443150053244722E-008
   3.9310948163340242E-008
   3.8184070239033474E-008
   3.1158515323426172E-008
   1.6234058652919714E-008
   8.3555407037749774E-009
   4.3689100448496276E-008
   8.9645082801403930E-008
   1.4445028106990776E-007
   2.0445280046743619E-007
   2.6427799237893623E-007
   3.1745383766157431E-007
   3.5745524984420740E-007
   3.7895544324761943E-007
   3.7895544358068634E-007
   3.5745525039931891E-007
   3.1745383799464122E-007
   2.6427799326711465E-007
   2.0445280002334698E-007
   1.4445028118093006E-007
   8.9645082690381628E-008
   4.3689100781563184E-008
   8.3555409258195823E-009
   1.6234058763942016E-008
   3.1158515434448475E-008
   3.8184070016988869E-008
   3.9310947941295638E-008
   3.6443149054044000E-008
   3.1194993921346281E-008
   2.4815861920934879E-008
   1.8201416596141939E-008
   1.1961329815513011E-008
   6.5269912807863761E-009
   2.3139941074390435E-009
   2.2435192592595854E-009
   2.4927960806664373E-009
   1.5299344013897098E-009
   5.9710236754995094E-011
   1.7465713320063969E-009
   2.8917065408862186E-009
   2.6422224408406692E-009
   1.3114787034140818E-010
   6.8437081557348733E-009
   1.9129328676648072E-008
   3.8669218938025551E-008
   6.6901558848364573E-008
   1.0462456612181370E-007
   1.5154960730789924E-007
   2.0591129956670784E-007
   2.6427799271200314E-007
   3.2170216868188106E-007
   3.7228619453877343E-007
   4.1011758900033612E-007
   4.3038529384809010E-007
   4.3038529429217931E-007
   4.1011758877829152E-007
   3.7228619476081803E-007
   3.2170216868188106E-007
   2.6427799271200314E-007
   2.0591129978875244E-007
   1.5154960741892154E-007
   1.0462456612181370E-007
   6.6901559181431480E-008
   3.8669219382114761E-008
   1.9129328676648072E-008
   6.8437081557348733E-009
   1.3114731522989587E-010
   2.6422221077737618E-009
   2.8917063188416137E-009
   1.7465709989394895E-009
   5.9710125732692632E-011
   1.5299348454789197E-009
   2.4927967468002521E-009
   2.2435195923264928E-009
   6.1458569344807756E-009
   1.0238301872966815E-008
   1.3156799982816381E-008
   1.5641497874696597E-008
   1.8315616689967840E-008
   2.1851114806459293E-008
   2.7068184582645927E-008
   3.4990083608299472E-008
   4.6848108281594136E-008
   6.4018016887601448E-008
   8.7867007336761560E-008
   1.1950019729312089E-007
   1.5941969855326477E-007
   2.0714686166378726E-007
   2.6090055293970238E-007
   3.1745383799464122E-007
   3.7228619409468422E-007
   4.2009190681646658E-007
   4.5560124184440554E-007
   4.7455041540800380E-007
   4.7455041518595920E-007
   4.5560124273258396E-007
   4.2009190681646658E-007
   3.7228619453877343E-007
   3.1745383810566352E-007
   2.6090055271765777E-007
   2.0714686177480957E-007
   1.5941969888633167E-007
   1.1950019818129931E-007
   8.7867007558806165E-008
   6.4018016776579145E-008
   4.6848108503638741E-008
   3.4990082942165657E-008
   2.7068183916512112E-008
   2.1851113918280873E-008
   1.8315617023034747E-008
   1.5641497985718900E-008
   1.3156800759972498E-008
   1.0238302206033723E-008
   6.1458562683469609E-009
   9.0006678776788362E-009
   1.5915784912223785E-008
   2.1700321206630235E-008
   2.7212739506232708E-008
   3.3150019285166366E-008
   4.0212787766336078E-008
   4.9199895713059050E-008
   6.1056051769980968E-008
   7.6871540022338536E-008
   9.7819873534632507E-008
   1.2501745150217403E-007
   1.5929820651461313E-007
   2.0091749663997405E-007
   2.4923159525069849E-007
   3.0243428528198280E-007
   3.5745525006625201E-007
   4.1011758855624691E-007
   4.5560124273258396E-007