# vtk DataFile Version 2.0
 Generated by Ninoy Rahman
ASCII
 
DATASET UNSTRUCTURED_GRID
 POINTS        64000  double
 -0.9750 -0.9750 -0.9750
 -0.9750 -0.9750 -0.9250
 -0.9750 -0.9750 -0.8750
 -0.9750 -0.9750 -0.8250
 -0.9750 -0.9750 -0.7750
 -0.9750 -0.9750 -0.7250
 -0.9750 -0.9750 -0.6750
 -0.9750 -0.9750 -0.6250
 -0.9750 -0.9750 -0.5750
 -0.9750 -0.9750 -0.5250
 -0.9750 -0.9750 -0.4750
 -0.9750 -0.9750 -0.4250
 -0.9750 -0.9750 -0.3750
 -0.9750 -0.9750 -0.3250
 -0.9750 -0.9750 -0.2750
 -0.9750 -0.9750 -0.2250
 -0.9750 -0.9750 -0.1750
 -0.9750 -0.9750 -0.1250
 -0.9750 -0.9750 -0.0750
 -0.9750 -0.9750 -0.0250
 -0.9750 -0.9750  0.0250
 -0.9750 -0.9750  0.0750
 -0.9750 -0.9750  0.1250
 -0.9750 -0.9750  0.1750
 -0.9750 -0.9750  0.2250
 -0.9750 -0.9750  0.2750
 -0.9750 -0.9750  0.3250
 -0.9750 -0.9750  0.3750
 -0.9750 -0.9750  0.4250
 -0.9750 -0.9750  0.4750
 -0.9750 -0.9750  0.5250
 -0.9750 -0.9750  0.5750
 -0.9750 -0.9750  0.6250
 -0.9750 -0.9750  0.6750
 -0.9750 -0.9750  0.7250
 -0.9750 -0.9750  0.7750
 -0.9750 -0.9750  0.8250
 -0.9750 -0.9750  0.8750
 -0.9750 -0.9750  0.9250
 -0.9750 -0.9750  0.9750
 -0.9750 -0.9250 -0.9750
 -0.9750 -0.9250 -0.9250
 -0.9750 -0.9250 -0.8750
 -0.9750 -0.9250 -0.8250
 -0.9750 -0.9250 -0.7750
 -0.9750 -0.9250 -0.7250
 -0.9750 -0.9250 -0.6750
 -0.9750 -0.9250 -0.6250
 -0.9750 -0.9250 -0.5750
 -0.9750 -0.9250 -0.5250
 -0.9750 -0.9250 -0.4750
 -0.9750 -0.9250 -0.4250
 -0.9750 -0.9250 -0.3750
 -0.9750 -0.9250 -0.3250
 -0.9750 -0.9250 -0.2750
 -0.9750 -0.9250 -0.2250
 -0.9750 -0.9250 -0.1750
 -0.9750 -0.9250 -0.1250
 -0.9750 -0.9250 -0.0750
 -0.9750 -0.9250 -0.0250
 -0.9750 -0.9250  0.0250
 -0.9750 -0.9250  0.0750
 -0.9750 -0.9250  0.1250
 -0.9750 -0.9250  0.1750
 -0.9750 -0.9250  0.2250
 -0.9750 -0.9250  0.2750
 -0.9750 -0.9250  0.3250
 -0.9750 -0.9250  0.3750
 -0.9750 -0.9250  0.4250
 -0.9750 -0.9250  0.4750
 -0.9750 -0.9250  0.5250
 -0.9750 -0.9250  0.5750
 -0.9750 -0.9250  0.6250
 -0.9750 -0.9250  0.6750
 -0.9750 -0.9250  0.7250
 -0.9750 -0.9250  0.7750
 -0.9750 -0.9250  0.8250
 -0.9750 -0.9250  0.8750
 -0.9750 -0.9250  0.9250
 -0.9750 -0.9250  0.9750
 -0.9750 -0.8750 -0.9750
 -0.9750 -0.8750 -0.9250
 -0.9750 -0.8750 -0.8750
 -0.9750 -0.8750 -0.8250
 -0.9750 -0.8750 -0.7750
 -0.9750 -0.8750 -0.7250
 -0.9750 -0.8750 -0.6750
 -0.9750 -0.8750 -0.6250
 -0.9750 -0.8750 -0.5750
 -0.9750 -0.8750 -0.5250
 -0.9750 -0.8750 -0.4750
 -0.9750 -0.8750 -0.4250
 -0.9750 -0.8750 -0.3750
 -0.9750 -0.8750 -0.3250
 -0.9750 -0.8750 -0.2750
 -0.9750 -0.8750 -0.2250
 -0.9750 -0.8750 -0.1750
 -0.9750 -0.8750 -0.1250
 -0.9750 -0.8750 -0.0750
 -0.9750 -0.8750 -0.0250
 -0.9750 -0.8750  0.0250
 -0.9750 -0.8750  0.0750
 -0.9750 -0.8750  0.1250
 -0.9750 -0.8750  0.1750
 -0.9750 -0.8750  0.2250
 -0.9750 -0.8750  0.2750
 -0.9750 -0.8750  0.3250
 -0.9750 -0.8750  0.3750
 -0.9750 -0.8750  0.4250
 -0.9750 -0.8750  0.4750
 -0.9750 -0.8750  0.5250
 -0.9750 -0.8750  0.5750
 -0.9750 -0.8750  0.6250
 -0.9750 -0.8750  0.6750
 -0.9750 -0.8750  0.7250
 -0.9750 -0.8750  0.7750
 -0.9750 -0.8750  0.8250
 -0.9750 -0.8750  0.8750
 -0.9750 -0.8750  0.9250
 -0.9750 -0.8750  0.9750
 -0.9750 -0.8250 -0.9750
 -0.9750 -0.8250 -0.9250
 -0.9750 -0.8250 -0.8750
 -0.9750 -0.8250 -0.8250
 -0.9750 -0.8250 -0.7750
 -0.9750 -0.8250 -0.7250
 -0.9750 -0.8250 -0.6750
 -0.9750 -0.8250 -0.6250
 -0.9750 -0.8250 -0.5750
 -0.9750 -0.8250 -0.5250
 -0.9750 -0.8250 -0.4750
 -0.9750 -0.8250 -0.4250
 -0.9750 -0.8250 -0.3750
 -0.9750 -0.8250 -0.3250
 -0.9750 -0.8250 -0.2750
 -0.9750 -0.8250 -0.2250
 -0.9750 -0.8250 -0.1750
 -0.9750 -0.8250 -0.1250
 -0.9750 -0.8250 -0.0750
 -0.9750 -0.8250 -0.0250
 -0.9750 -0.8250  0.0250
 -0.9750 -0.8250  0.0750
 -0.9750 -0.8250  0.1250
 -0.9750 -0.8250  0.1750
 -0.9750 -0.8250  0.2250
 -0.9750 -0.8250  0.2750
 -0.9750 -0.8250  0.3250
 -0.9750 -0.8250  0.3750
 -0.9750 -0.8250  0.4250
 -0.9750 -0.8250  0.4750
 -0.9750 -0.8250  0.5250
 -0.9750 -0.8250  0.5750
 -0.9750 -0.8250  0.6250
 -0.9750 -0.8250  0.6750
 -0.9750 -0.8250  0.7250
 -0.9750 -0.8250  0.7750
 -0.9750 -0.8250  0.8250
 -0.9750 -0.8250  0.8750
 -0.9750 -0.8250  0.9250
 -0.9750 -0.8250  0.9750
 -0.9750 -0.7750 -0.9750
 -0.9750 -0.7750 -0.9250
 -0.9750 -0.7750 -0.8750
 -0.9750 -0.7750 -0.8250
 -0.9750 -0.7750 -0.7750
 -0.9750 -0.7750 -0.7250
 -0.9750 -0.7750 -0.6750
 -0.9750 -0.7750 -0.6250
 -0.9750 -0.7750 -0.5750
 -0.9750 -0.7750 -0.5250
 -0.9750 -0.7750 -0.4750
 -0.9750 -0.7750 -0.4250
 -0.9750 -0.7750 -0.3750
 -0.9750 -0.7750 -0.3250
 -0.9750 -0.7750 -0.2750
 -0.9750 -0.7750 -0.2250
 -0.9750 -0.7750 -0.1750
 -0.9750 -0.7750 -0.1250
 -0.9750 -0.7750 -0.0750
 -0.9750 -0.7750 -0.0250
 -0.9750 -0.7750  0.0250
 -0.9750 -0.7750  0.0750
 -0.9750 -0.7750  0.1250
 -0.9750 -0.7750  0.1750
 -0.9750 -0.7750  0.2250
 -0.9750 -0.7750  0.2750
 -0.9750 -0.7750  0.3250
 -0.9750 -0.7750  0.3750
 -0.9750 -0.7750  0.4250
 -0.9750 -0.7750  0.4750
 -0.9750 -0.7750  0.5250
 -0.9750 -0.7750  0.5750
 -0.9750 -0.7750  0.6250
 -0.9750 -0.7750  0.6750
 -0.9750 -0.7750  0.7250
 -0.9750 -0.7750  0.7750
 -0.9750 -0.7750  0.8250
 -0.9750 -0.7750  0.8750
 -0.9750 -0.7750  0.9250
 -0.9750 -0.7750  0.9750
 -0.9750 -0.7250 -0.9750
 -0.9750 -0.7250 -0.9250
 -0.9750 -0.7250 -0.8750
 -0.9750 -0.7250 -0.8250
 -0.9750 -0.7250 -0.7750
 -0.9750 -0.7250 -0.7250
 -0.9750 -0.7250 -0.6750
 -0.9750 -0.7250 -0.6250
 -0.9750 -0.7250 -0.5750
 -0.9750 -0.7250 -0.5250
 -0.9750 -0.7250 -0.4750
 -0.9750 -0.7250 -0.4250
 -0.9750 -0.7250 -0.3750
 -0.9750 -0.7250 -0.3250
 -0.9750 -0.7250 -0.2750
 -0.9750 -0.7250 -0.2250
 -0.9750 -0.7250 -0.1750
 -0.9750 -0.7250 -0.1250
 -0.9750 -0.7250 -0.0750
 -0.9750 -0.7250 -0.0250
 -0.9750 -0.7250  0.0250
 -0.9750 -0.7250  0.0750
 -0.9750 -0.7250  0.1250
 -0.9750 -0.7250  0.1750
 -0.9750 -0.7250  0.2250
 -0.9750 -0.7250  0.2750
 -0.9750 -0.7250  0.3250
 -0.9750 -0.7250  0.3750
 -0.9750 -0.7250  0.4250
 -0.9750 -0.7250  0.4750
 -0.9750 -0.7250  0.5250
 -0.9750 -0.7250  0.5750
 -0.9750 -0.7250  0.6250
 -0.9750 -0.7250  0.6750
 -0.9750 -0.7250  0.7250
 -0.9750 -0.7250  0.7750
 -0.9750 -0.7250  0.8250
 -0.9750 -0.7250  0.8750
 -0.9750 -0.7250  0.9250
 -0.9750 -0.7250  0.9750
 -0.9750 -0.6750 -0.9750
 -0.9750 -0.6750 -0.9250
 -0.9750 -0.6750 -0.8750
 -0.9750 -0.6750 -0.8250
 -0.9750 -0.6750 -0.7750
 -0.9750 -0.6750 -0.7250
 -0.9750 -0.6750 -0.6750
 -0.9750 -0.6750 -0.6250
 -0.9750 -0.6750 -0.5750
 -0.9750 -0.6750 -0.5250
 -0.9750 -0.6750 -0.4750
 -0.9750 -0.6750 -0.4250
 -0.9750 -0.6750 -0.3750
 -0.9750 -0.6750 -0.3250
 -0.9750 -0.6750 -0.2750
 -0.9750 -0.6750 -0.2250
 -0.9750 -0.6750 -0.1750
 -0.9750 -0.6750 -0.1250
 -0.9750 -0.6750 -0.0750
 -0.9750 -0.6750 -0.0250
 -0.9750 -0.6750  0.0250
 -0.9750 -0.6750  0.0750
 -0.9750 -0.6750  0.1250
 -0.9750 -0.6750  0.1750
 -0.9750 -0.6750  0.2250
 -0.9750 -0.6750  0.2750
 -0.9750 -0.6750  0.3250
 -0.9750 -0.6750  0.3750
 -0.9750 -0.6750  0.4250
 -0.9750 -0.6750  0.4750
 -0.9750 -0.6750  0.5250
 -0.9750 -0.6750  0.5750
 -0.9750 -0.6750  0.6250
 -0.9750 -0.6750  0.6750
 -0.9750 -0.6750  0.7250
 -0.9750 -0.6750  0.7750
 -0.9750 -0.6750  0.8250
 -0.9750 -0.6750  0.8750
 -0.9750 -0.6750  0.9250
 -0.9750 -0.6750  0.9750
 -0.9750 -0.6250 -0.9750
 -0.9750 -0.6250 -0.9250
 -0.9750 -0.6250 -0.8750
 -0.9750 -0.6250 -0.8250
 -0.9750 -0.6250 -0.7750
 -0.9750 -0.6250 -0.7250
 -0.9750 -0.6250 -0.6750
 -0.9750 -0.6250 -0.6250
 -0.9750 -0.6250 -0.5750
 -0.9750 -0.6250 -0.5250
 -0.9750 -0.6250 -0.4750
 -0.9750 -0.6250 -0.4250
 -0.9750 -0.6250 -0.3750
 -0.9750 -0.6250 -0.3250
 -0.9750 -0.6250 -0.2750
 -0.9750 -0.6250 -0.2250
 -0.9750 -0.6250 -0.1750
 -0.9750 -0.6250 -0.1250
 -0.9750 -0.6250 -0.0750
 -0.9750 -0.6250 -0.0250
 -0.9750 -0.6250  0.0250
 -0.9750 -0.6250  0.0750
 -0.9750 -0.6250  0.1250
 -0.9750 -0.6250  0.1750
 -0.9750 -0.6250  0.2250
 -0.9750 -0.6250  0.2750
 -0.9750 -0.6250  0.3250
 -0.9750 -0.6250  0.3750
 -0.9750 -0.6250  0.4250
 -0.9750 -0.6250  0.4750
 -0.9750 -0.6250  0.5250
 -0.9750 -0.6250  0.5750
 -0.9750 -0.6250  0.6250
 -0.9750 -0.6250  0.6750
 -0.9750 -0.6250  0.7250
 -0.9750 -0.6250  0.7750
 -0.9750 -0.6250  0.8250
 -0.9750 -0.6250  0.8750
 -0.9750 -0.6250  0.9250
 -0.9750 -0.6250  0.9750
 -0.9750 -0.5750 -0.9750
 -0.9750 -0.5750 -0.9250
 -0.9750 -0.5750 -0.8750
 -0.9750 -0.5750 -0.8250
 -0.9750 -0.5750 -0.7750
 -0.9750 -0.5750 -0.7250
 -0.9750 -0.5750 -0.6750
 -0.9750 -0.5750 -0.6250
 -0.9750 -0.5750 -0.5750
 -0.9750 -0.5750 -0.5250
 -0.9750 -0.5750 -0.4750
 -0.9750 -0.5750 -0.4250
 -0.9750 -0.5750 -0.3750
 -0.9750 -0.5750 -0.3250
 -0.9750 -0.5750 -0.2750
 -0.9750 -0.5750 -0.2250
 -0.9750 -0.5750 -0.1750
 -0.9750 -0.5750 -0.1250
 -0.9750 -0.5750 -0.0750
 -0.9750 -0.5750 -0.0250
 -0.9750 -0.5750  0.0250
 -0.9750 -0.5750  0.0750
 -0.9750 -0.5750  0.1250
 -0.9750 -0.5750  0.1750
 -0.9750 -0.5750  0.2250
 -0.9750 -0.5750  0.2750
 -0.9750 -0.5750  0.3250
 -0.9750 -0.5750  0.3750
 -0.9750 -0.5750  0.4250
 -0.9750 -0.5750  0.4750
 -0.9750 -0.5750  0.5250
 -0.9750 -0.5750  0.5750
 -0.9750 -0.5750  0.6250
 -0.9750 -0.5750  0.6750
 -0.9750 -0.5750  0.7250
 -0.9750 -0.5750  0.7750
 -0.9750 -0.5750  0.8250
 -0.9750 -0.5750  0.8750
 -0.9750 -0.5750  0.9250
 -0.9750 -0.5750  0.9750
 -0.9750 -0.5250 -0.9750
 -0.9750 -0.5250 -0.9250
 -0.9750 -0.5250 -0.8750
 -0.9750 -0.5250 -0.8250
 -0.9750 -0.5250 -0.7750
 -0.9750 -0.5250 -0.7250
 -0.9750 -0.5250 -0.6750
 -0.9750 -0.5250 -0.6250
 -0.9750 -0.5250 -0.5750
 -0.9750 -0.5250 -0.5250
 -0.9750 -0.5250 -0.4750
 -0.9750 -0.5250 -0.4250
 -0.9750 -0.5250 -0.3750
 -0.9750 -0.5250 -0.3250
 -0.9750 -0.5250 -0.2750
 -0.9750 -0.5250 -0.2250
 -0.9750 -0.5250 -0.1750
 -0.9750 -0.5250 -0.1250
 -0.9750 -0.5250 -0.0750
 -0.9750 -0.5250 -0.0250
 -0.9750 -0.5250  0.0250
 -0.9750 -0.5250  0.0750
 -0.9750 -0.5250  0.1250
 -0.9750 -0.5250  0.1750
 -0.9750 -0.5250  0.2250
 -0.9750 -0.5250  0.2750
 -0.9750 -0.5250  0.3250
 -0.9750 -0.5250  0.3750
 -0.9750 -0.5250  0.4250
 -0.9750 -0.5250  0.4750
 -0.9750 -0.5250  0.5250
 -0.9750 -0.5250  0.5750
 -0.9750 -0.5250  0.6250
 -0.9750 -0.5250  0.6750
 -0.9750 -0.5250  0.7250
[...]
 POINT_DATA        64000
SCALARS Error double 1
LOOKUP_TABLE DEFAULT
   4.9553906533716940E-009
   9.6251908665578867E-009
   1.4005792636773151E-008
   1.8115816735608803E-008
   2.1909133507413969E-008
   2.5300975203812470E-008
   2.8181671218874271E-008
   3.0428617514566270E-008
   3.1920595611190095E-008
   3.2555095397235334E-008
   3.2267581495659670E-008
   3.1050461646309202E-008
   2.8968638599025098E-008
   2.6168159306116934E-008
   2.2874785288173882E-008
   1.9380482774167263E-008
   1.6017784543187474E-008
   1.3124374698136876E-008
   1.1002628585998764E-008
   9.8804904258287252E-009
   9.8804906478733301E-009
   1.1002628697021066E-008
   1.3124374698136876E-008
   1.6017784543187474E-008
   1.9380483662345682E-008
   2.2874785732263092E-008
   2.6168159195094631E-008
   2.8968638488002796E-008
   3.1050461646309202E-008
   3.2267582161793484E-008
   3.2555095841324544E-008
   3.1920595500167792E-008
   3.0428617514566270E-008
   2.8181671218874271E-008
   2.5300975314834773E-008
   2.1909133729458574E-008
   1.8115817179698013E-008
   1.4005793413929268E-008
   9.6251910886024916E-009
   4.9553908754162990E-009
   9.6251906445132818E-009
   1.8941393564730902E-008
   2.7758310316983170E-008
   3.6067793529603875E-008
   4.3768178525915857E-008
   5.0687547825667423E-008
   5.6604534059978562E-008
   6.1270331475071771E-008
   6.4436770697007262E-008
   6.5891057388078877E-008
   6.5494948131572528E-008
   6.3223772661658018E-008
   5.9198915547398201E-008
   5.3706533331698836E-008
   4.7195829688817525E-008
   4.0252571054111286E-008
   3.3547482791718153E-008
   2.7764223808901534E-008
   2.3516574354509601E-008
   2.1268041883182320E-008
   2.1268042105226925E-008
   2.3516574354509601E-008
   2.7764223808901534E-008
   3.3547482902740455E-008
   4.0252571387178193E-008
   4.7195829910862130E-008
   5.3706533442721138E-008
   5.9198916324554318E-008
   6.3223772883702622E-008
   6.5494948575661738E-008
   6.5891056721945063E-008
   6.4436770919051867E-008
   6.1270331697116376E-008
   5.6604534171000864E-008
   5.0687548158734330E-008
   4.3768178747960462E-008
   3.6067793640626178E-008
   2.7758309872893960E-008
   1.8941393897797809E-008
   9.6251906445132818E-009
   1.4005793191884663E-008
   2.7758309761871658E-008
   4.0870973716522485E-008
   5.3288959023234383E-008
   6.4847348268948224E-008
   7.5284254941188067E-008
   8.4263946376061938E-008
   9.1406653690562223E-008
   9.6329462073718730E-008
   9.8698480832659641E-008
   9.8288768013432559E-008
   9.5045017634021178E-008
   8.9133148972742049E-008
   8.0971406135610380E-008
   7.1230265907828993E-008
   6.0793909018030945E-008
   5.0682173680094422E-008
   4.1939901995746709E-008
   3.5508556095464883E-008
   3.2100851199423630E-008
   3.2100851421468235E-008
   3.5508556095464883E-008
   4.1939901773702104E-008
   5.0682173458049817E-008
   6.0793908907008642E-008
   7.1230266018851296E-008
   8.0971406135610380E-008
   8.9133149194786654E-008
   9.5045017967088086E-008
   9.8288768568544072E-008
   9.8698480277548128E-008
   9.6329461851674125E-008
   9.1406653912606828E-008
   8.4263946487084240E-008
   7.5284255163232672E-008
   6.4847348268948224E-008
   5.3288958801189779E-008
   4.0870973827544788E-008
   2.7758310539027775E-008
   1.4005792969840059E-008
   1.8115816846631105E-008
   3.6067793751648480E-008
   5.3288958801189779E-008
   6.9675838543226121E-008
   8.4997657467944521E-008
   9.8899730072155023E-008
   1.1092710017202023E-007
   1.2056071019284076E-007
   1.2727050913152738E-007
   1.3058547121413966E-007
   1.3017580335894507E-007
   1.2593790876813671E-007
   1.1806841138106705E-007
   1.0711111253502992E-007
   9.3961237901396544E-008
   7.9815949738382130E-008
   6.6068627568860450E-008
   5.4155906203945392E-008
   4.5378132584872333E-008
   4.0722724525821263E-008
   4.0722724081732053E-008
   4.5378131696693913E-008
   5.4155906314967694E-008
   6.6068628012949659E-008
   7.9815949738382130E-008
   9.3961238789574963E-008
   1.0711111264605222E-007
   1.1806841204720087E-007
   1.2593790810200289E-007
   1.3017580324792277E-007
   1.3058547099209505E-007
   1.2727050957561659E-007
   1.2056071030386306E-007
   1.1092709983895332E-007
   9.8899730072155023E-008
   8.4997657912033731E-008
   6.9675839209359935E-008
   5.3288959023234383E-008
   3.6067792974492363E-008
   1.8115816624586500E-008
   2.1909133951503179E-008
   4.3768178747960462E-008
   6.4847348046903619E-008
   8.4997657801011428E-008
   1.0392291605043624E-007
   1.2117350223217471E-007
   1.3616951000106070E-007
   1.4824223826259697E-007
   1.5669913533411517E-007
   1.6091234955606382E-007
   1.6042526529425061E-007
   1.5506508765916749E-007
   1.4504364242995393E-007
   1.3102467311121302E-007
   1.1413598588472240E-007
   9.5910360986550813E-008
   7.8150445559366233E-008
   6.2728430894054554E-008
   5.1347699203674324E-008
   4.5306261298172501E-008
   4.5306261409194803E-008
   5.1347699536741231E-008
   6.2728431005076857E-008
   7.8150445115277023E-008
   9.5910360875528511E-008
   1.1413598555165549E-007
   1.3102467244507920E-007
   1.4504364254097624E-007
   1.5506508754814519E-007
   1.6042526529425061E-007
   1.6091234944504151E-007
   1.5669913522309287E-007
   1.4824223815157467E-007
   1.3616950944594919E-007
   1.2117350178808550E-007
   1.0392291627248085E-007
   8.4997657912033731E-008
   6.4847348268948224E-008
   4.3768178414893555E-008
   2.1909133507413969E-008
   2.5300975425857075E-008
   5.0687548269756633E-008
   7.5284255052210369E-008
   9.8899729739088116E-008
   1.2117350178808550E-007
   1.4155928040882060E-007
   1.5934636277137315E-007
   1.7370539706629273E-007
   1.8376476429438071E-007
   1.8871842033529873E-007
   1.8795899103807301E-007
   1.8122183320645746E-007
   1.6871764585424387E-007
   1.5122546725976349E-007
   1.3011703492438187E-007
   1.0728986510333272E-007
   8.5000790739364618E-008
   6.5612197563957864E-008
   5.1285505175968638E-008
   4.3674004968075053E-008
   4.3674005301141960E-008
   5.1285505064946335E-008
   6.5612198119069376E-008
   8.5000791294476130E-008
   1.0728986621355574E-007
   1.3011703525744878E-007
   1.5122546725976349E-007
   1.6871764529913236E-007
   1.8122183309543516E-007
   1.8795899148216222E-007
   1.8871842000223182E-007
   1.8376476385029150E-007
   1.7370539695527043E-007
   1.5934636232728394E-007
   1.4155928074188751E-007
   1.2117350156604090E-007
   9.8899729294998906E-008
   7.5284255274254974E-008
   5.0687547936689725E-008
   2.5300975314834773E-008
   2.8181671218874271E-008
   5.6604534171000864E-008
   8.4263946265039635E-008
   1.1092710006099793E-007
   1.3616950955697149E-007
   1.5934636232728394E-007
   1.7961062581672849E-007
   1.9596184408499084E-007
   2.0733338523815092E-007
   2.1272015870987815E-007
   2.1134048244775272E-007
   2.0281557278067908E-007
   1.8733938889070600E-007
   1.6580325135073792E-007
   1.3983734004074932E-007
   1.1173815683829247E-007
   8.4268698241629636E-008
   6.0344545915747005E-008
   4.2648555687030409E-008
   3.3240858621219616E-008
   3.3240858288152708E-008
   4.2648555909075014E-008
   6.0344545804724703E-008
   8.4268698352651938E-008
   1.1173815683829247E-007
   1.3983733992972702E-007
   1.6580325057358181E-007
   1.8733938877968370E-007
   2.0281557311374598E-007
   2.1134048222570812E-007
   2.1272015859885585E-007
   2.0733338512712862E-007
   1.9596184408499084E-007
   1.7961062626081770E-007
   1.5934636277137315E-007
   1.3616950977901610E-007
   1.1092709983895332E-007
   8.4263946487084240E-008
   5.6604534393045469E-008
   2.8181671885008086E-008
   3.0428617070477060E-008
   6.1270331919160981E-008
   9.1406654245673735E-008
   1.2056070985977385E-007
   1.4824223848464158E-007
   1.7370539651118122E-007
   1.9596184364090163E-007
   2.1383115622608528E-007
   2.2603813587540600E-007
   2.3136069127183134E-007
   2.2882235661825234E-007
   2.1791093252065963E-007
   1.9879089663277227E-007
   1.7246570604978473E-007
   1.4084168720174262E-007
   1.0665241345630960E-007
   7.3223688445978041E-008
   4.4092556050756571E-008
   2.2531958410176856E-008
   1.1064723581810654E-008
   1.1064723581810654E-008
   2.2531957966087646E-008
   4.4092555384622756E-008
   7.3223688557000344E-008
   1.0665241334528730E-007
   1.4084168731276492E-007
   1.7246570593876243E-007
   1.9879089707686148E-007
   2.1791093229861502E-007
   2.2882235639620774E-007
   2.3136069138285364E-007
   2.2603813598642830E-007
   2.1383115611506298E-007
   1.9596184419601315E-007
   1.7370539695527043E-007
   1.4824223881770848E-007
   1.2056070963772925E-007
   9.1406653357495316E-008
   6.1270332141205586E-008
   3.0428616959454757E-008
   3.1920595278123187E-008
   6.4436770697007262E-008
   9.6329461518607218E-008
   1.2727050946459428E-007
   1.5669913533411517E-007
   1.8376476507153683E-007
   2.0733338590428474E-007
   2.2603813598642830E-007
   2.3838568941059179E-007
   2.4292422551308590E-007
   2.3846793995030424E-007
   2.2435793056718722E-007
   2.0072191675435391E-007
   1.6867987895352599E-007
   1.3043544000446161E-007
   8.9199824637731240E-008
   4.8920097195370715E-008
   1.3824448585886273E-008
   1.2154262152286321E-008
   2.5973728945416497E-008
   2.5973728723371892E-008
   1.2154261486152507E-008
   1.3824448363841668E-008
   4.8920097195370715E-008
   8.9199824526708937E-008
   1.3043544055957312E-007
   1.6867987828739217E-007
   2.0072191664333161E-007
   2.2435793001207571E-007
   2.3846794006132654E-007
   2.4292422540206360E-007
   2.3838568974365870E-007
   2.2603813576438370E-007
   2.0733338590428474E-007
   1.8376476507153683E-007
   1.5669913500104826E-007
   1.2727050924254968E-007
   9.6329461185540310E-008
   6.4436770363940354E-008
   3.1920595611190095E-008
   3.2555096174391451E-008
   6.5891057277056575E-008
   9.8698480943681943E-008
   1.3058547154720657E-007
   1.6091234944504151E-007
   1.8871842011325413E-007
   2.1272015870987815E-007
   2.3136069104978674E-007
   2.4292422540206360E-007
   2.4572370083131290E-007
   2.3835794804583088E-007
   2.2001695110240860E-007
   1.9079249680142851E-007
   1.5193174918159968E-007
   1.0596048560795879E-007
   5.6609048448841293E-008
   8.5026294893708609E-009
   3.3373014685089686E-008
   6.4359120255375046E-008
   8.0840455662922750E-008
   8.0840455662922750E-008
   6.4359120477419651E-008
   3.3373014463045081E-008
   8.5026291563039536E-009
   5.6609047893729780E-008
   1.0596048483080267E-007
   1.5193174884853278E-007
   1.9079249669040621E-007
   2.2001695088036399E-007
   2.3835794837889779E-007
   2.4572370094233520E-007
   2.4292422562410820E-007
   2.3136069127183134E-007
   2.1272015848783354E-007
   1.8871842000223182E-007
   1.6091234966708612E-007
   1.3058547110311736E-007
   9.8698480832659641E-008
   6.5891056943989668E-008
   3.2555095841324544E-008
   3.2267582050771182E-008
   6.5494948242594830E-008
   9.8288767791387954E-008
   1.3017580380303428E-007
   1.6042526573833982E-007
   1.8795899148216222E-007
   2.1134048311388653E-007
   2.2882235650723004E-007
   2.3846794028337115E-007
   2.3835794860094239E-007
   2.2688024692296693E-007
   2.0308037940175439E-007
   1.6702519067823829E-007
   1.2010722816313546E-007
   6.5202803600783454E-008
   6.6016613287089854E-009
   5.0341634416639636E-008
   9.9826046762174769E-008
   1.3641061735736315E-007
   1.5586198098826998E-007
   1.5586198109929228E-007
   1.3641061802349697E-007
   9.9826046873197072E-008
   5.0341634194595031E-008
   6.6016616617758928E-009
   6.5202803045671942E-008
   1.2010722783006855E-007
   1.6702519001210447E-007
   2.0308037940175439E-007
   2.2688024692296693E-007
   2.3835794871196470E-007
   2.3846794061643806E-007
   2.2882235606314083E-007
   2.1134048200366351E-007
   1.8795899170420682E-007
   1.6042526507220600E-007
   1.3017580346996738E-007
   9.8288768013432559E-008
   6.5494948353617133E-008
   3.2267581717704275E-008
   3.1050461646309202E-008
   6.3223772772680320E-008
   9.5045017634021178E-008
   1.2593790821302520E-007
   1.5506508754814519E-007
   1.8122183320645746E-007
   2.0281557322476829E-007
   2.1791093285372654E-007
   2.2435793112229874E-007
   2.2001695199058702E-007
   2.0308037940175439E-007
   1.7246795669390025E-007
   1.2824346129480801E-007
   7.1970632675721902E-008
   6.9070307251450913E-009
   6.2061994543505250E-008
   1.2881152966492948E-007
   1.8668221835049792E-007
   2.2941056443404051E-007
   2.5211337084662944E-007
   2.5211337018049562E-007
   2.2941056465608511E-007
   1.8668221857254252E-007
   1.2881152944288488E-007
   6.2061994210438343E-008
   6.9070309471896962E-009
   7.1970632786744204E-008
   1.2824346140583032E-007
   1.7246795691594485E-007
   2.0308037917970978E-007
   2.2001695210160932E-007
   2.2435793034514262E-007
   2.1791093285372654E-007
   2.0281557278067908E-007
   1.8122183309543516E-007
   1.5506508688201137E-007
   1.2593790832404750E-007
   9.5045017967088086E-008
   6.3223772217568808E-008
   3.1050461868353807E-008
   2.8968638043913586E-008
   5.9198916102509713E-008
   8.9133149527853561E-008
   1.1806841204720087E-007
   1.4504364254097624E-007
   1.6871764541015466E-007
   1.8733938911275061E-007
   1.9879089685481688E-007
   2.0072191697639852E-007
   1.9079249757858463E-007
   1.6702519056721599E-007
   1.2824346107276341E-007
   7.4539453387423293E-008
   7.6796311532234540E-009
   6.8666934693872861E-008
   1.4899114986199891E-007
   2.2637226926303100E-007
   2.9327032158299460E-007
   3.4258096115458159E-007
   3.6875795306201553E-007
   3.6875795339508244E-007
   3.4258096071049238E-007
   2.9327032136094999E-007
   2.2637226892996409E-007
   1.4899114941790970E-007
   6.8666934582850558E-008
   7.6796309311788491E-009
   7.4539453276400991E-008
   1.2824346129480801E-007
   1.6702519045619368E-007
   1.9079249713449542E-007
   2.0072191653230931E-007
   1.9879089652174997E-007
   1.8733938877968370E-007
   1.6871764541015466E-007
   1.4504364198586472E-007
   1.1806841160311166E-007
   8.9133149083764351E-008
   5.9198915658420503E-008
   2.8968638043913586E-008
   2.6168160083273051E-008
   5.3706533664765743E-008
   8.0971406135610380E-008
   1.0711111264605222E-007
   1.3102467311121302E-007
   1.5122546670465198E-007
   1.6580325035153720E-007
   1.7246570616080703E-007
   1.6867987895352599E-007
   1.5193174951466659E-007
   1.2010722882926927E-007
   7.1970632675721902E-008
   7.6796309311788491E-009
   7.0763636617066084E-008
   1.5925353935575259E-007
   2.5164238903752079E-007
   3.4020919359445401E-007
   4.1653742999248067E-007
   4.7269078895517680E-007
   5.0246928795516510E-007
   5.0246928762209819E-007
   4.7269078884415450E-007
   4.1653742977043606E-007
   3.4020919315036480E-007
   2.5164238903752079E-007
   1.5925353891166338E-007
   7.0763636950132991E-008
   7.6796309311788491E-009
   7.1970633230833414E-008
   1.2010722805211316E-007
   1.5193174907057738E-007
   1.6867987839841447E-007
   1.7246570582774012E-007
   1.6580325090664871E-007
   1.5122546714874119E-007
   1.3102467277814611E-007
   1.0711111186889610E-007
   8.0971405913565775E-008
   5.3706533220676533E-008
   2.6168159306116934E-008
   2.2874785954307697E-008
   4.7195829688817525E-008
   7.1230266351918203E-008
   9.3961238123441149E-008
   1.1413598588472240E-007
   1.3011703503540417E-007
   1.3983734026279393E-007
   1.4084168808992104E-007
   1.3043544078161773E-007
   1.0596048549693649E-007
   6.5202803489761152E-008
   6.9070308361673938E-009
   6.8666934138761349E-008
   1.5925353935575259E-007
   2.6029739608190994E-007
   3.6501686784262688E-007
   4.6491283145488893E-007
   5.5072718885273986E-007
   6.1373121973407052E-007
   6.4710533398404380E-007
   6.4710533398404380E-007
   6.1373121984509282E-007
   5.5072718807558374E-007
   4.6491283178795584E-007
   3.6501686739853767E-007
   2.6029739608190994E-007
   1.5925353880064108E-007
   6.8666934360805953E-008
   6.9070308361673938E-009
   6.5202803378738849E-008
   1.0596048505284728E-007
   1.3043544033752852E-007
   1.4084168753480952E-007
   1.3983733959666012E-007
   1.3011703470233726E-007
   1.1413598544063319E-007
   9.3961237679351939E-008
   7.1230265685784389E-008
   4.7195829799839828E-008
   2.2874785732263092E-008
   1.9380483218256472E-008
   4.0252571054111286E-008
   6.0793909018030945E-008
   7.9815949738382130E-008
   9.5910360653483906E-008
   1.0728986588048883E-007
   1.1173815683829247E-007
   1.0665241334528730E-007
   8.9199824970798147E-008
   5.6609048337818990E-008
   6.6016611066643804E-009
   6.2061994876572157E-008
   1.4899114952893200E-007
   2.5164238859343158E-007
   3.6501686784262688E-007
   4.8172954913994204E-007
   5.9255650641798496E-007
   6.8746672887698423E-007
   7.5701054935706225E-007
   7.9380803241768660E-007
   7.9380803241768660E-007
   7.5701054913501764E-007
   6.8746672898800654E-007
   5.9255650586287345E-007
   4.8172954869585283E-007
   3.6501686706547076E-007
   2.5164238870445388E-007
   1.4899114919586509E-007
   6.2061994210438343E-008
   6.6016616617758928E-009
   5.6609048670885898E-008
   8.9199824637731240E-008
   1.0665241301222039E-007
   1.1173815661624786E-007
   1.0728986554742193E-007
   9.5910360653483906E-008
   7.9815949516337525E-008
   6.0793909351097852E-008
   4.0252570721044378E-008
   1.9380482885189565E-008
   1.6017784432165172E-008
   3.3547483346829665E-008
   5.0682174124183632E-008
   6.6068627124771240E-008
   7.8150445670388535E-008
   8.5000791183453828E-008
   8.4268698241629636E-008
   7.3223688779044949E-008
   4.8920097750482228E-008
   8.5026293783485585E-009
   5.0341633861528123E-008
   1.2881152866572876E-007
   2.2637226937405330E-007
   3.4020919348343170E-007
   4.6491283167693354E-007
   5.9255650619594036E-007
   7.1327889661354504E-007
   8.1637893234454140E-007
   8.9178809781209623E-007
   9.3164863235184470E-007
   9.3164863279593391E-007
   8.9178809714596241E-007
   8.1637893190045219E-007
   7.1327889783479037E-007
   5.9255650597389575E-007
   4.6491283145488893E-007
   3.4020919315036480E-007
   2.2637226915200870E-007
   1.2881152899879567E-007
   5.0341633639483518E-008
   8.5026296003931634E-009
   4.8920097084348413E-008
   7.3223688334955739E-008
   8.4268698241629636E-008
   8.5000790850386920E-008
   7.8150445115277023E-008
   6.6068627901927357E-008
   5.0682173791116725E-008
   3.3547482680695850E-008
   1.6017784654209777E-008
   1.3124375253248388E-008
   2.7764224141968441E-008
   4.1939901884724407E-008
   5.4155906203945392E-008
   6.2728430560987647E-008
   6.5612197674980166E-008
   6.0344545582680098E-008
   4.4092555828711966E-008
   1.3824448363841668E-008
   3.3373014018955871E-008
   9.9826045651951745E-008
   1.8668221768436410E-007
   2.9327032124992769E-007
   4.1653742899327995E-007
   5.5072718807558374E-007
   6.8746672954311805E-007
   8.1637893245556370E-007
   9.2622749370274704E-007
   1.0064542139698318E-006
   1.0488256519947114E-006
   1.0488256522167561E-006
   1.0064542140808541E-006
   9.2622749348070244E-007
   8.1637893190045219E-007
   6.8746672876596193E-007
   5.5072718840865065E-007
   4.1653742977043606E-007
   2.9327032113890539E-007
   1.8668221790640871E-007
   9.9826046651152467E-008
   3.3373014352022778E-008
   1.3824448030774761E-008
   4.4092556050756571E-008
   6.0344545582680098E-008
   6.5612197119868654E-008
   6.2728430560987647E-008
   5.4155906092923090E-008
   4.1939901662679802E-008
   2.7764223919923836E-008
   1.3124374587114573E-008
   1.1002628808043369E-008
   2.3516574465531903E-008
   3.5508555873420278E-008
   4.5378133139983845E-008
   5.1347699869808139E-008
   5.1285504953924033E-008
   4.2648555576008107E-008
   2.2531957855065343E-008
   1.2154261597174809E-008
   6.4359119922308139E-008
   1.3641061702429624E-007
   2.2941056398995130E-007
   3.4258096037742547E-007
   4.7269078873313219E-007
   6.1373121928998131E-007
   7.5701054980115146E-007
   8.9178809725698471E-007
   1.0064542144139210E-006