# vtk DataFile Version 2.0
 Generated by Ninoy Rahman
ASCII
 
DATASET UNSTRUCTURED_GRID
 POINTS        64000  double
 -0.9750 -0.9750 -0.9750
 -0.9750 -0.9750 -0.9250
 -0.9750 -0.9750 -0.8750
 -0.9750 -0.9750 -0.8250
 -0.9750 -0.9750 -0.7750
 -0.9750 -0.9750 -0.7250
 -0.9750 -0.9750 -0.6750
 -0.9750 -0.9750 -0.6250
 -0.9750 -0.9750 -0.5750
 -0.9750 -0.9750 -0.5250
 -0.9750 -0.9750 -0.4750
 -0.9750 -0.9750 -0.4250
 -0.9750 -0.9750 -0.3750
 -0.9750 -0.9750 -0.3250
 -0.9750 -0.9750 -0.2750
 -0.9750 -0.9750 -0.2250
 -0.9750 -0.9750 -0.1750
 -0.9750 -0.9750 -0.1250
 -0.9750 -0.9750 -0.0750
 -0.9750 -0.9750 -0.0250
 -0.9750 -0.9750  0.0250
 -0.9750 -0.9750  0.0750
 -0.9750 -0.9750  0.1250
 -0.9750 -0.9750  0.1750
 -0.9750 -0.9750  0.2250
 -0.9750 -0.9750  0.2750
 -0.9750 -0.9750  0.3250
 -0.9750 -0.9750  0.3750
 -0.9750 -0.9750  0.4250
 -0.9750 -0.9750  0.4750
 -0.9750 -0.9750  0.5250
 -0.9750 -0.9750  0.5750
 -0.9750 -0.9750  0.6250
 -0.9750 -0.9750  0.6750
 -0.9750 -0.9750  0.7250
 -0.9750 -0.9750  0.7750
 -0.9750 -0.9750  0.8250
 -0.9750 -0.9750  0.8750
 -0.9750 -0.9750  0.9250
 -0.9750 -0.9750  0.9750
 -0.9750 -0.9250 -0.9750
 -0.9750 -0.9250 -0.9250
 -0.9750 -0.9250 -0.8750
 -0.9750 -0.9250 -0.8250
 -0.9750 -0.9250 -0.7750
 -0.9750 -0.9250 -0.7250
 -0.9750 -0.9250 -0.6750
 -0.9750 -0.9250 -0.6250
 -0.9750 -0.9250 -0.5750
 -0.9750 -0.9250 -0.5250
 -0.9750 -0.9250 -0.4750
 -0.9750 -0.9250 -0.4250
 -0.9750 -0.9250 -0.3750
 -0.9750 -0.9250 -0.3250
 -0.9750 -0.9250 -0.2750
 -0.9750 -0.9250 -0.2250
 -0.9750 -0.9250 -0.1750
 -0.9750 -0.9250 -0.1250
 -0.9750 -0.9250 -0.0750
 -0.9750 -0.9250 -0.0250
 -0.9750 -0.9250  0.0250
 -0.9750 -0.9250  0.0750
 -0.9750 -0.9250  0.1250
 -0.9750 -0.9250  0.1750
 -0.9750 -0.9250  0.2250
 -0.9750 -0.9250  0.2750
 -0.9750 -0.9250  0.3250
 -0.9750 -0.9250  0.3750
 -0.9750 -0.9250  0.4250
 -0.9750 -0.9250  0.4750
 -0.9750 -0.9250  0.5250
 -0.9750 -0.9250  0.5750
 -0.9750 -0.9250  0.6250
 -0.9750 -0.9250  0.6750
 -0.9750 -0.9250  0.7250
 -0.9750 -0.9250  0.7750
 -0.9750 -0.9250  0.8250
 -0.9750 -0.9250  0.8750
 -0.9750 -0.9250  0.9250
 -0.9750 -0.9250  0.9750
 -0.9750 -0.8750 -0.9750
 -0.9750 -0.8750 -0.9250
 -0.9750 -0.8750 -0.8750
 -0.9750 -0.8750 -0.8250
 -0.9750 -0.8750 -0.7750
 -0.9750 -0.8750 -0.7250
 -0.9750 -0.8750 -0.6750
 -0.9750 -0.8750 -0.6250
 -0.9750 -0.8750 -0.5750
 -0.9750 -0.8750 -0.5250
 -0.9750 -0.8750 -0.4750
 -0.9750 -0.8750 -0.4250
 -0.9750 -0.8750 -0.3750
 -0.9750 -0.8750 -0.3250
 -0.9750 -0.8750 -0.2750
 -0.9750 -0.8750 -0.2250
 -0.9750 -0.8750 -0.1750
 -0.9750 -0.8750 -0.1250
 -0.9750 -0.8750 -0.0750
 -0.9750 -0.8750 -0.0250
 -0.9750 -0.8750  0.0250
 -0.9750 -0.8750  0.0750
 -0.9750 -0.8750  0.1250
 -0.9750 -0.8750  0.1750
 -0.9750 -0.8750  0.2250
 -0.9750 -0.8750  0.2750
 -0.9750 -0.8750  0.3250
 -0.9750 -0.8750  0.3750
 -0.9750 -0.8750  0.4250
 -0.9750 -0.8750  0.4750
 -0.9750 -0.8750  0.5250
 -0.9750 -0.8750  0.5750
 -0.9750 -0.8750  0.6250
 -0.9750 -0.8750  0.6750
 -0.9750 -0.8750  0.7250
 -0.9750 -0.8750  0.7750
 -0.9750 -0.8750  0.8250
 -0.9750 -0.8750  0.8750
 -0.9750 -0.8750  0.9250
 -0.9750 -0.8750  0.9750
 -0.9750 -0.8250 -0.9750
 -0.9750 -0.8250 -0.9250
 -0.9750 -0.8250 -0.8750
 -0.9750 -0.8250 -0.8250
 -0.9750 -0.8250 -0.7750
 -0.9750 -0.8250 -0.7250
 -0.9750 -0.8250 -0.6750
 -0.9750 -0.8250 -0.6250
 -0.9750 -0.8250 -0.5750
 -0.9750 -0.8250 -0.5250
 -0.9750 -0.8250 -0.4750
 -0.9750 -0.8250 -0.4250
 -0.9750 -0.8250 -0.3750
 -0.9750 -0.8250 -0.3250
 -0.9750 -0.8250 -0.2750
 -0.9750 -0.8250 -0.2250
 -0.9750 -0.8250 -0.1750
 -0.9750 -0.8250 -0.1250
 -0.9750 -0.8250 -0.0750
 -0.9750 -0.8250 -0.0250
 -0.9750 -0.8250  0.0250
 -0.9750 -0.8250  0.0750
 -0.9750 -0.8250  0.1250
 -0.9750 -0.8250  0.1750
 -0.9750 -0.8250  0.2250
 -0.9750 -0.8250  0.2750
 -0.9750 -0.8250  0.3250
 -0.9750 -0.8250  0.3750
 -0.9750 -0.8250  0.4250
 -0.9750 -0.8250  0.4750
 -0.9750 -0.8250  0.5250
 -0.9750 -0.8250  0.5750
 -0.9750 -0.8250  0.6250
 -0.9750 -0.8250  0.6750
 -0.9750 -0.8250  0.7250
 -0.9750 -0.8250  0.7750
 -0.9750 -0.8250  0.8250
 -0.9750 -0.8250  0.8750
 -0.9750 -0.8250  0.9250
 -0.9750 -0.8250  0.9750
 -0.9750 -0.7750 -0.9750
 -0.9750 -0.7750 -0.9250
 -0.9750 -0.7750 -0.8750
 -0.9750 -0.7750 -0.8250
 -0.9750 -0.7750 -0.7750
 -0.9750 -0.7750 -0.7250
 -0.9750 -0.7750 -0.6750
 -0.9750 -0.7750 -0.6250
 -0.9750 -0.7750 -0.5750
 -0.9750 -0.7750 -0.5250
 -0.9750 -0.7750 -0.4750
 -0.9750 -0.7750 -0.4250
 -0.9750 -0.7750 -0.3750
 -0.9750 -0.7750 -0.3250
 -0.9750 -0.7750 -0.2750
 -0.9750 -0.7750 -0.2250
 -0.9750 -0.7750 -0.1750
 -0.9750 -0.7750 -0.1250
 -0.9750 -0.7750 -0.0750
 -0.9750 -0.7750 -0.0250
 -0.9750 -0.7750  0.0250
 -0.9750 -0.7750  0.0750
 -0.9750 -0.7750  0.1250
 -0.9750 -0.7750  0.1750
 -0.9750 -0.7750  0.2250
 -0.9750 -0.7750  0.2750
 -0.9750 -0.7750  0.3250
 -0.9750 -0.7750  0.3750
 -0.9750 -0.7750  0.4250
 -0.9750 -0.7750  0.4750
 -0.9750 -0.7750  0.5250
 -0.9750 -0.7750  0.5750
 -0.9750 -0.7750  0.6250
 -0.9750 -0.7750  0.6750
 -0.9750 -0.7750  0.7250
 -0.9750 -0.7750  0.7750
 -0.9750 -0.7750  0.8250
 -0.9750 -0.7750  0.8750
 -0.9750 -0.7750  0.9250
 -0.9750 -0.7750  0.9750
 -0.9750 -0.7250 -0.9750
 -0.9750 -0.7250 -0.9250
 -0.9750 -0.7250 -0.8750
 -0.9750 -0.7250 -0.8250
 -0.9750 -0.7250 -0.7750
 -0.9750 -0.7250 -0.7250
 -0.9750 -0.7250 -0.6750
 -0.9750 -0.7250 -0.6250
 -0.9750 -0.7250 -0.5750
 -0.9750 -0.7250 -0.5250
 -0.9750 -0.7250 -0.4750
 -0.9750 -0.7250 -0.4250
 -0.9750 -0.7250 -0.3750
 -0.9750 -0.7250 -0.3250
 -0.9750 -0.7250 -0.2750
 -0.9750 -0.7250 -0.2250
 -0.9750 -0.7250 -0.1750
 -0.9750 -0.7250 -0.1250
 -0.9750 -0.7250 -0.0750
 -0.9750 -0.7250 -0.0250
 -0.9750 -0.7250  0.0250
 -0.9750 -0.7250  0.0750
 -0.9750 -0.7250  0.1250
 -0.9750 -0.7250  0.1750
 -0.9750 -0.7250  0.2250
 -0.9750 -0.7250  0.2750
 -0.9750 -0.7250  0.3250
 -0.9750 -0.7250  0.3750
 -0.9750 -0.7250  0.4250
 -0.9750 -0.7250  0.4750
 -0.9750 -0.7250  0.5250
 -0.9750 -0.7250  0.5750
 -0.9750 -0.7250  0.6250
 -0.9750 -0.7250  0.6750
 -0.9750 -0.7250  0.7250
 -0.9750 -0.7250  0.7750
 -0.9750 -0.7250  0.8250
 -0.9750 -0.7250  0.8750
 -0.9750 -0.7250  0.9250
 -0.9750 -0.7250  0.9750
 -0.9750 -0.6750 -0.9750
 -0.9750 -0.6750 -0.9250
 -0.9750 -0.6750 -0.8750
 -0.9750 -0.6750 -0.8250
 -0.9750 -0.6750 -0.7750
 -0.9750 -0.6750 -0.7250
 -0.9750 -0.6750 -0.6750
 -0.9750 -0.6750 -0.6250
 -0.9750 -0.6750 -0.5750
 -0.9750 -0.6750 -0.5250
 -0.9750 -0.6750 -0.4750
 -0.9750 -0.6750 -0.4250
 -0.9750 -0.6750 -0.3750
 -0.9750 -0.6750 -0.3250
 -0.9750 -0.6750 -0.2750
 -0.9750 -0.6750 -0.2250
 -0.9750 -0.6750 -0.1750
 -0.9750 -0.6750 -0.1250
 -0.9750 -0.6750 -0.0750
 -0.9750 -0.6750 -0.0250
 -0.9750 -0.6750  0.0250
 -0.9750 -0.6750  0.0750
 -0.9750 -0.6750  0.1250
 -0.9750 -0.6750  0.1750
 -0.9750 -0.6750  0.2250
 -0.9750 -0.6750  0.2750
 -0.9750 -0.6750  0.3250
 -0.9750 -0.6750  0.3750
 -0.9750 -0.6750  0.4250
 -0.9750 -0.6750  0.4750
 -0.9750 -0.6750  0.5250
 -0.9750 -0.6750  0.5750
 -0.9750 -0.6750  0.6250
 -0.9750 -0.6750  0.6750
 -0.9750 -0.6750  0.7250
 -0.9750 -0.6750  0.7750
 -0.9750 -0.6750  0.8250
 -0.9750 -0.6750  0.8750
 -0.9750 -0.6750  0.9250
 -0.9750 -0.6750  0.9750
 -0.9750 -0.6250 -0.9750
 -0.9750 -0.6250 -0.9250
 -0.9750 -0.6250 -0.8750
 -0.9750 -0.6250 -0.8250
 -0.9750 -0.6250 -0.7750
 -0.9750 -0.6250 -0.7250
 -0.9750 -0.6250 -0.6750
 -0.9750 -0.6250 -0.6250
 -0.9750 -0.6250 -0.5750
 -0.9750 -0.6250 -0.5250
 -0.9750 -0.6250 -0.4750
 -0.9750 -0.6250 -0.4250
 -0.9750 -0.6250 -0.3750
 -0.9750 -0.6250 -0.3250
 -0.9750 -0.6250 -0.2750
 -0.9750 -0.6250 -0.2250
 -0.9750 -0.6250 -0.1750
 -0.9750 -0.6250 -0.1250
 -0.9750 -0.6250 -0.0750
 -0.9750 -0.6250 -0.0250
 -0.9750 -0.6250  0.0250
 -0.9750 -0.6250  0.0750
 -0.9750 -0.6250  0.1250
 -0.9750 -0.6250  0.1750
 -0.9750 -0.6250  0.2250
 -0.9750 -0.6250  0.2750
 -0.9750 -0.6250  0.3250
 -0.9750 -0.6250  0.3750
 -0.9750 -0.6250  0.4250
 -0.9750 -0.6250  0.4750
 -0.9750 -0.6250  0.5250
 -0.9750 -0.6250  0.5750
 -0.9750 -0.6250  0.6250
 -0.9750 -0.6250  0.6750
 -0.9750 -0.6250  0.7250
 -0.9750 -0.6250  0.7750
 -0.9750 -0.6250  0.8250
 -0.9750 -0.6250  0.8750
 -0.9750 -0.6250  0.9250
 -0.9750 -0.6250  0.9750
 -0.9750 -0.5750 -0.9750
 -0.9750 -0.5750 -0.9250
 -0.9750 -0.5750 -0.8750
 -0.9750 -0.5750 -0.8250
 -0.9750 -0.5750 -0.7750
 -0.9750 -0.5750 -0.7250
 -0.9750 -0.5750 -0.6750
 -0.9750 -0.5750 -0.6250
 -0.9750 -0.5750 -0.5750
 -0.9750 -0.5750 -0.5250
 -0.9750 -0.5750 -0.4750
 -0.9750 -0.5750 -0.4250
 -0.9750 -0.5750 -0.3750
 -0.9750 -0.5750 -0.3250
 -0.9750 -0.5750 -0.2750
 -0.9750 -0.5750 -0.2250
 -0.9750 -0.5750 -0.1750
 -0.9750 -0.5750 -0.1250
 -0.9750 -0.5750 -0.0750
 -0.9750 -0.5750 -0.0250
 -0.9750 -0.5750  0.0250
 -0.9750 -0.5750  0.0750
 -0.9750 -0.5750  0.1250
 -0.9750 -0.5750  0.1750
 -0.9750 -0.5750  0.2250
 -0.9750 -0.5750  0.2750
 -0.9750 -0.5750  0.3250
 -0.9750 -0.5750  0.3750
 -0.9750 -0.5750  0.4250
 -0.9750 -0.5750  0.4750
 -0.9750 -0.5750  0.5250
 -0.9750 -0.5750  0.5750
 -0.9750 -0.5750  0.6250
 -0.9750 -0.5750  0.6750
 -0.9750 -0.5750  0.7250
 -0.9750 -0.5750  0.7750
 -0.9750 -0.5750  0.8250
 -0.9750 -0.5750  0.8750
 -0.9750 -0.5750  0.9250
 -0.9750 -0.5750  0.9750
 -0.9750 -0.5250 -0.9750
 -0.9750 -0.5250 -0.9250
 -0.9750 -0.5250 -0.8750
 -0.9750 -0.5250 -0.8250
 -0.9750 -0.5250 -0.7750
 -0.9750 -0.5250 -0.7250
 -0.9750 -0.5250 -0.6750
 -0.9750 -0.5250 -0.6250
 -0.9750 -0.5250 -0.5750
 -0.9750 -0.5250 -0.5250
 -0.9750 -0.5250 -0.4750
 -0.9750 -0.5250 -0.4250
 -0.9750 -0.5250 -0.3750
 -0.9750 -0.5250 -0.3250
 -0.9750 -0.5250 -0.2750
 -0.9750 -0.5250 -0.2250
 -0.9750 -0.5250 -0.1750
 -0.9750 -0.5250 -0.1250
 -0.9750 -0.5250 -0.0750
 -0.9750 -0.5250 -0.0250
 -0.9750 -0.5250  0.0250
 -0.9750 -0.5250  0.0750
 -0.9750 -0.5250  0.1250
 -0.9750 -0.5250  0.1750
 -0.9750 -0.5250  0.2250
 -0.9750 -0.5250  0.2750
 -0.9750 -0.5250  0.3250
 -0.9750 -0.5250  0.3750
 -0.9750 -0.5250  0.4250
 -0.9750 -0.5250  0.4750
 -0.9750 -0.5250  0.5250
 -0.9750 -0.5250  0.5750
 -0.9750 -0.5250  0.6250
 -0.9750 -0.5250  0.6750
 -0.9750 -0.5250  0.7250
[...]
 POINT_DATA        64000
SCALARS Error double 1
LOOKUP_TABLE DEFAULT
   8.4924788978923971E-008
   1.7273230740189049E-007
   2.6035895317466640E-007
   3.4745821780868269E-007
   4.3350580652967707E-007
   5.1769006093049796E-007
   5.9893460713222879E-007
   6.7596727265639700E-007
   7.4743190875414811E-007
   8.1203276880437159E-007
   8.6869216026075335E-007
   9.1669561824714307E-007
   9.5579714154414575E-007
   9.8626169692250798E-007
   1.0088331299229480E-006
   1.0246303628336229E-006
   1.0349891267913414E-006
   1.0412761051736830E-006
   1.0447048677808546E-006
   1.0461788419457996E-006
   1.0461788420013107E-006
   1.0447048678363657E-006
   1.0412761053957276E-006
   1.0349891269023637E-006
   1.0246303632222009E-006
   1.0088331300894815E-006
   9.8626169708904143E-007
   9.5579714159965690E-007
   9.1669561858020998E-007
   8.6869216014973105E-007
   8.1203276874886043E-007
   7.4743190897619272E-007
   6.7596727304497506E-007
   5.9893460724325109E-007
   5.1769006048640875E-007
   4.3350580664069938E-007
   3.4745821769766039E-007
   2.6035895311915525E-007
   1.7273230712433474E-007
   8.4924788590345912E-008
   1.7273230734637934E-007
   3.5161320832699516E-007
   5.3028513646857789E-007
   7.0803378715567078E-007
   8.8379776574942781E-007
   1.0559161805479000E-006
   1.2221671538692469E-006
   1.3799078347753735E-006
   1.5263068514070888E-006
   1.6586475313218330E-006
   1.7746614270341965E-006
   1.8728373734067105E-006
   1.9526469678954328E-006
   2.0146369386631058E-006
   2.0603623681059169E-006
   2.0921669755535888E-006
   2.1128480893195523E-006
   2.1252647641190059E-006
   2.1319521061324842E-006
   2.1347947536387579E-006
   2.1347947535832468E-006
   2.1319521061879954E-006
   2.1252647641745170E-006
   2.1128480893195523E-006
   2.0921669755535888E-006
   2.0603623682724503E-006
   2.0146369388296392E-006
   1.9526469677844105E-006
   1.8728373731846659E-006
   1.7746614270897076E-006
   1.6586475314328553E-006
   1.5263068514625999E-006
   1.3799078349419069E-006
   1.2221671538692469E-006
   1.0559161805479000E-006
   8.8379776563840551E-007
   7.0803378710015963E-007
   5.3028513619102213E-007
   3.5161320843801747E-007
   1.7273230706882359E-007
   2.6035895311915525E-007
   5.3028513635755559E-007
   8.0019504544726061E-007
   1.0690440037652849E-006
   1.3352454644732781E-006
   1.5962612274211807E-006
   1.8486482855628594E-006
   2.0882714801273572E-006
   2.3106679125639573E-006
   2.5115300827938114E-006
   2.6872438468328319E-006
   2.8353923522406177E-006
   2.9551279788764262E-006
   3.0473285663745742E-006
   3.1144929250048747E-006
   3.1603851869954624E-006
   3.1894913495311705E-006
   3.2063865085252274E-006
   3.2151175339278915E-006
   3.2186862612970657E-006
   3.2186862610195099E-006
   3.2151175343164695E-006
   3.2063865086917609E-006
   3.1894913495311705E-006
   3.1603851867734178E-006
   3.1144929253379416E-006
   3.0473285662080407E-006
   2.9551279785988704E-006
   2.8353923522961288E-006
   2.6872438470548765E-006
   2.5115300831268783E-006
   2.3106679125084462E-006
   2.0882714801273572E-006
   1.8486482856738817E-006
   1.5962612273101584E-006
   1.3352454645843004E-006
   1.0690440038207960E-006
   8.0019504572481637E-007
   5.3028513635755559E-007
   2.6035895339671100E-007
   3.4745821747561578E-007
   7.0803378704464848E-007
   1.0690440037097737E-006
   1.4291771892049887E-006
   1.7863284247354727E-006
   2.1370197270664804E-006
   2.4764477886685121E-006
   2.7987733950962657E-006
   3.0976372171753752E-006
   3.3668587581248133E-006
   3.6012281302566507E-006
   3.7972596306778961E-006
   3.9537577585790906E-006
   4.0720641501512667E-006
   4.1559116366052251E-006
   4.2108969263154883E-006
   4.2436693628022937E-006
   4.2609892836331653E-006
   4.2688176553618007E-006
   4.2715637538215390E-006
   4.2715637534884721E-006
   4.2688176552507784E-006
   4.2609892833000984E-006
   4.2436693625802491E-006
   4.2108969262044660E-006
   4.1559116366607363E-006
   4.0720641500957555E-006
   3.9537577584680683E-006
   3.7972596306778961E-006
   3.6012281302011395E-006
   3.3668587585689025E-006
   3.0976372175639533E-006
   2.7987733949852434E-006
   2.4764477887795344E-006
   2.1370197264558577E-006
   1.7863284248464950E-006
   1.4291771889829441E-006
   1.0690440039873295E-006
   7.0803378693362617E-007
   3.4745821769766039E-007
   4.3350580658518822E-007
   8.8379776569391666E-007
   1.3352454645843004E-006
   1.7863284249575173E-006
   2.2343994937057410E-006
   2.6749164203088149E-006
   3.1014803547613212E-006
   3.5062084177139852E-006
   3.8804301966122168E-006
   4.2156578258234489E-006
   4.5047097460559904E-006
   4.7428032027840850E-006
   4.9283950541711974E-006
   5.0635684277211546E-006
   5.1538441037113358E-006
   5.2074245340261172E-006
   5.2340132914441284E-006
   5.2434427018077656E-006
   5.2443551656899956E-006
   5.2431257767660000E-006
   5.2431257766549777E-006
   5.2443551653569287E-006
   5.2434427019187879E-006
   5.2340132913331061E-006
   5.2074245339150949E-006
   5.1538441039333804E-006
   5.0635684277211546E-006
   4.9283950546707977E-006
   4.7428032027285738E-006
   4.5047097459449681E-006
   4.2156578258789601E-006
   3.8804301970007948E-006
   3.5062084180470521E-006
   3.1014803547613212E-006
   2.6749164200312592E-006
   2.2343994937612521E-006
   1.7863284248464950E-006
   1.3352454646953227E-006
   8.8379776569391666E-007
   4.3350580664069938E-007
   5.1769006070845336E-007
   1.0559161809364781E-006
   1.5962612274211807E-006
   2.1370197266779023E-006
   2.6749164203643261E-006
   3.2041224621859321E-006
   3.7162691431946726E-006
   4.2009110426399765E-006
   4.6464437342685905E-006
   5.0414250752361944E-006
   5.3761483263525811E-006
   5.6442129438560862E-006
   5.8437723982063261E-006
   5.9781482644183370E-006
   6.0556088048446810E-006
   6.0883014039170291E-006
   6.0905394370092125E-006
   6.0767920055937452E-006
   6.0597514000004793E-006
   6.0487632528305468E-006
   6.0487632530525914E-006
   6.0597513997784347E-006
   6.0767920057047675E-006
   6.0905394371202348E-006
   6.0883014035839622E-006
   6.0556088048446810E-006
   5.9781482644183370E-006
   5.8437723983173484E-006
   5.6442129438005750E-006
   5.3761483262415588E-006
   5.0414250750696610E-006
   4.6464437344351239E-006
   4.2009110425844653E-006
   3.7162691434167172E-006
   3.2041224621859321E-006
   2.6749164200867703E-006
   2.1370197266223911E-006
   1.5962612273656696E-006
   1.0559161806589223E-006
   5.1769006048640875E-007
   5.9893460729876224E-007
   1.2221671540912915E-006
   1.8486482856738817E-006
   2.4764477886685121E-006
   3.1014803547058101E-006
   3.7162691433056949E-006
   4.3099104996557891E-006
   4.8686335279990445E-006
   5.3769906801504064E-006
   5.8196399553844813E-006
   6.1835361810924638E-006
   6.4601900026106662E-006
   6.6475331635951207E-006
   6.7509136171262085E-006
   6.7828806966652166E-006
   6.7616975351070252E-006
   6.7088473816312444E-006
   6.6460489571706916E-006
   6.5923586188842975E-006
   6.5618084726937198E-006
   6.5618084726937198E-006
   6.5923586188842975E-006
   6.6460489573927362E-006
   6.7088473817422667E-006
   6.7616975351070252E-006
   6.7828806963321497E-006
   6.7509136166821193E-006
   6.6475331635951207E-006
   6.4601900027216885E-006
   6.1835361804263300E-006
   5.8196399551069256E-006
   5.3769906800948952E-006
   4.8686335280545556E-006
   4.3099104995447668E-006
   3.7162691436387618E-006
   3.1014803547613212E-006
   2.4764477887240233E-006
   1.8486482856738817E-006
   1.2221671537582246E-006
   5.9893460735427340E-007
   6.7596727321150851E-007
   1.3799078351084404E-006
   2.0882714803494018E-006
   2.7987733950962657E-006
   3.5062084181025632E-006
   4.2009110426399765E-006
   4.8686335279435333E-006
   5.4912012978358682E-006
   6.0480363013870608E-006
   6.5185417692514847E-006
   6.8851432344363417E-006
   7.1365395701850076E-006
   7.2705095492953120E-006
   7.2955482438574748E-006
   7.2307622155376450E-006
   7.1038409531487545E-006
   6.9474296959803894E-006
   6.7946490492909462E-006
   6.6746546429907738E-006
   6.6089671010294282E-006
   6.6089671010294282E-006
   6.6746546431017961E-006
   6.7946490496240131E-006
   6.9474296958693671E-006
   7.1038409530377322E-006
   7.2307622158707119E-006
   7.2955482439684971E-006
   7.2705095491842897E-006
   7.1365395702960299E-006
   6.8851432347694086E-006
   6.5185417693625070E-006
   6.0480363013315497E-006
   5.4912012981134239E-006
   4.8686335282766002E-006
   4.2009110427509988E-006
   3.5062084179915409E-006
   2.7987733952072880E-006
   2.0882714803494018E-006
   1.3799078349419069E-006
   6.7596727282293045E-007
   7.4743190875414811E-007
   1.5263068512405553E-006
   2.3106679125639573E-006
   3.0976372172863975E-006
   3.8804301967787502E-006
   4.6464437342130793E-006
   5.3769906800948952E-006
   6.0480363012760385E-006
   6.6321149827519577E-006
   7.1014874893915447E-006
   7.4323320047309238E-006
   7.6094064443976706E-006
   7.6302735905198205E-006
   7.5080009741546050E-006
   7.2713904083476777E-006
   6.9623118287287511E-006
   6.6304789385629448E-006
   6.3267069243533314E-006
   6.0960206941240713E-006
   5.9718193959890087E-006
   5.9718193962110533E-006
   6.0960206940130490E-006
   6.3267069241312868E-006
   6.6304789391180563E-006
   6.9623118287287511E-006
   7.2713904077925662E-006
   7.5080009735994935E-006
   7.6302735905198205E-006
   7.6094064443976706E-006
   7.4323320049529684E-006
   7.1014874889474555E-006
   6.6321149831960469E-006
   6.0480363012205274E-006
   5.3769906802614287E-006
   4.6464437340465459E-006
   3.8804301968897725E-006
   3.0976372174529310E-006
   2.3106679126194685E-006
   1.5263068512960665E-006
   7.4743190880965926E-007
   8.1203276885988274E-007
   1.6586475313773441E-006
   2.5115300830713672E-006
   3.3668587584023690E-006
   4.2156578259344712E-006
   5.0414250751251721E-006
   5.8196399552179479E-006
   6.5185417694735293E-006
   7.1014874889474555E-006
   7.5310666072248011E-006
   7.7748050789638867E-006
   7.8117840180969011E-006
   7.6389504621854343E-006
   7.2755294230342216E-006
   6.7640152220382888E-006
   6.1668683764004584E-006
   5.5591469187987741E-006
   5.0184436548583733E-006
   4.6141772899188638E-006
   4.3982224848804208E-006
   4.3982224849914431E-006
   4.6141772904739753E-006
   5.0184436549693956E-006
   5.5591469185767295E-006
   6.1668683765114807E-006
   6.7640152214831772E-006
   7.2755294233672885E-006
   7.6389504624074789E-006
   7.8117840177638342E-006
   7.7748050792969536E-006
   7.5310666072248011E-006
   7.1014874890584778E-006
   6.5185417690294400E-006
   5.8196399552734590E-006
   5.0414250751806833E-006
   4.2156578256569155E-006
   3.3668587584023690E-006
   2.5115300829048337E-006
   1.6586475312108107E-006
   8.1203276891539389E-007
   8.6869216042728681E-007
   1.7746614268121519E-006
   2.6872438471103877E-006
   3.6012281304786953E-006
   4.5047097462225238E-006
   5.3761483260750254E-006
   6.1835361806483746E-006
   6.8851432339922525E-006
   7.4323320047309238E-006
   7.7748050794079759E-006
   7.8682223679793495E-006
   7.6834347567666939E-006
   7.2157541016748539E-006
   6.4920120086409128E-006
   5.5730441126389252E-006
   4.5499633535284190E-006
   3.5340967148300706E-006
   2.6422429380001944E-006
   1.9802031394622333E-006
   1.6277910371842452E-006
   1.6277910372952675E-006
   1.9802031399063225E-006
   2.6422429373340606E-006
   3.5340967143859814E-006
   4.5499633531953521E-006
   5.5730441128609698E-006
   6.4920120090850020E-006
   7.2157541015638316E-006
   7.6834347575438500E-006
   7.8682223684234387E-006
   7.7748050796300205E-006
   7.4323320043978569E-006
   6.8851432342142971E-006
   6.1835361806483746E-006
   5.3761483260195142E-006
   4.5047097460559904E-006
   3.6012281304786953E-006
   2.6872438469438542E-006
   1.7746614269786853E-006
   8.6869216014973105E-007
   9.1669561830265422E-007
   1.8728373729626213E-006
   2.8353923524626623E-006
   3.7972596307889184E-006
   4.7428032027285738E-006
   5.6442129436895527E-006
   6.4601900027216885E-006
   7.1365395704070522E-006
   7.6094064440646036E-006
   7.8117840179858788E-006
   7.6834347569887385E-006
   7.1834636586887157E-006
   6.3036043768116556E-006
   5.0791730655808109E-006
   3.5941749403356482E-006
   1.9777258614128712E-006
   3.9088354830685290E-007
   9.9437147860204078E-007
   2.0199576571400257E-006
   2.5652943351772706E-006
   2.5652943347331814E-006
   2.0199576580282042E-006
   9.9437147815795157E-007
   3.9088354797378599E-007
   1.9777258618569604E-006
   3.5941749405576928E-006
   5.0791730659138778E-006
   6.3036043762565441E-006
   7.1834636583556488E-006
   7.6834347565446492E-006
   7.8117840179858788E-006
   7.6094064442866483E-006
   7.1365395704070522E-006
   6.4601900026106662E-006
   5.6442129440781308E-006
   4.7428032029506184E-006
   3.7972596307889184E-006
   2.8353923525181735E-006
   1.8728373733511994E-006
   9.1669561813612077E-007
   9.5579714193272380E-007
   1.9526469679509439E-006
   2.9551279787654039E-006
   3.9537577585235795E-006
   4.9283950545042643E-006
   5.8437723982063261E-006
   6.6475331633730761E-006
   7.2705095489622451E-006
   7.6302735907418651E-006
   7.6389504620744120E-006
   7.2157541025630323E-006
   6.3036043765896110E-006
   4.8875871624387557E-006
   3.0113265567788261E-006
   7.8628353117338179E-007
   1.6106110807267981E-006
   3.9533197058183589E-006
   5.9956769025149015E-006
   7.5077571494164275E-006
   8.3120614110532287E-006
   8.3120614112752733E-006
   7.5077571490833606E-006
   5.9956769026259238E-006
   3.9533197061514258E-006
   1.6106110807267981E-006
   7.8628353150644870E-007
   3.0113265567788261E-006
   4.8875871623277334E-006
   6.3036043758124549E-006
   7.2157541021189431E-006
   7.6389504627405458E-006
   7.6302735907418651E-006
   7.2705095490732674E-006
   6.6475331639281876E-006
   5.8437723979842815E-006
   4.9283950546152866E-006
   3.9537577586346018E-006
   2.9551279789319373E-006
   1.9526469677844105E-006
   9.5579714148863459E-007
   9.8626169725557489E-007
   2.0146369388851504E-006
   3.0473285664300853E-006
   4.0720641500402444E-006
   5.0635684278321769E-006
   5.9781482645293593E-006
   6.7509136166821193E-006
   7.2955482436354302E-006
   7.5080009742656273E-006
   7.2755294232562662E-006
   6.4920120085298905E-006
   5.0791730655808109E-006
   3.0113265571118930E-006
   3.3882609107305228E-007
   2.7965063961188363E-006
   6.1609420252128899E-006
   9.4480116737960529E-006
   1.2316982412663435E-005
   1.4444327294471648E-005
   1.5577250234821705E-005
   1.5577250234599660E-005
   1.4444327294138581E-005
   1.2316982412552413E-005
   9.4480116736850306E-006
   6.1609420252128899E-006
   2.7965063963408809E-006
   3.3882609107305228E-007
   3.0113265564457592E-006
   5.0791730659138778E-006
   6.4920120079747790E-006
   7.2755294227011547E-006
   7.5080009742656273E-006
   7.2955482435244079E-006
   6.7509136164600747E-006
   5.9781482644183370E-006
   5.0635684278321769E-006
   4.0720641503178001E-006
   3.0473285660970184E-006
   2.0146369388851504E-006
   9.8626169714455258E-007
   1.0088331297564146E-006
   2.0603623683834726E-006
   3.1144929252824305E-006
   4.1559116367717586E-006
   5.1538441044884920E-006
   6.0556088049557033E-006
   6.7828806966652166E-006
   7.2307622158707119E-006
   7.2713904080146108E-006
   6.7640152215941995E-006
   5.5730441126389252E-006
   3.5941749411128043E-006
   7.8628353139542639E-007
   2.7965063960078140E-006
   6.9812024585669263E-006
   1.1470721273609819E-005
   1.5864954622579752E-005
   1.9709871022288716E-005
   2.2567518491722893E-005
   2.4091799851189144E-005
   2.4091799851522211E-005
   2.2567518491500849E-005
   1.9709871023065872E-005
   1.5864954622579752E-005
   1.1470721273720841E-005
   6.9812024581228371E-006
   2.7965063955637248E-006
   7.8628353117338179E-007
   3.5941749407797374E-006
   5.5730441124168806E-006
   6.7640152214831772E-006
   7.2713904076815439E-006
   7.2307622158707119E-006
   6.7828806965541943E-006
   6.0556088044005918E-006
   5.1538441043774696E-006
   4.1559116369382920E-006
   3.1144929254489639E-006
   2.0603623686055172E-006
   1.0088331302005038E-006
   1.0246303628336229E-006
   2.0921669758866557E-006
   3.1603851873285294E-006
   4.2108969263154883E-006
   5.2074245336930503E-006
   6.0883014035839622E-006
   6.7616975349960029E-006
   7.1038409531487545E-006
   6.9623118293948849E-006
   6.1668683766225030E-006
   4.5499633534173967E-006
   1.9777258619679827E-006
   1.6106110807267981E-006
   6.1609420259900460E-006
   1.1470721273387774E-005
   1.7176987965883406E-005
   2.2778082416241574E-005
   2.7693846619492035E-005
   3.1356734032761402E-005
   3.3313820795854987E-005
   3.3313820795299875E-005
   3.1356734032872424E-005
   2.7693846619381013E-005
   2.2778082416019529E-005
   1.7176987966105450E-005
   1.1470721273720841E-005
   6.1609420256569791E-006
   1.6106110807267981E-006
   1.9777258620790050E-006
   4.5499633529733075E-006
   6.1668683765114807E-006
   6.9623118290618180E-006
   7.1038409530377322E-006
   6.7616975353290698E-006
   6.0883014041390737E-006
   5.2074245340261172E-006
   4.2108969265375329E-006
   3.1603851871064848E-006
   2.0921669757201222E-006
   1.0246303630001563E-006
   1.0349891268468525E-006
   2.1128480894305746E-006
   3.1894913496977040E-006
   4.2436693628022937E-006
   5.2340132908890169E-006
   6.0905394373422794E-006
   6.7088473817422667E-006
   6.9474296959803894E-006
   6.6304789386739671E-006
   5.5591469181326403E-006
   3.5340967144970037E-006
   3.9088354841787520E-007
   3.9533197064844927E-006
   9.4480116735740083E-006
   1.5864954623023841E-005
   2.2778082416019529E-005
   2.9584628744472319E-005
   3.5576055446018273E-005
   4.0051114573169677E-005
   4.2445800281898372E-005
   4.2445800282231438E-005
   4.0051114572614566E-005
   3.5576055445463162E-005
   2.9584628744805386E-005
   2.2778082416130552E-005
   1.5864954622801797E-005
   9.4480116736850306E-006
   3.9533197057073366E-006
   3.9088354819583060E-007
   3.5340967146080260E-006
   5.5591469184657072E-006
   6.6304789387849894E-006
   6.9474296956473225E-006
   6.7088473819643113E-006
   6.0905394368981902E-006
   5.2340132910000392E-006
   4.2436693626357602E-006
   3.1894913497532151E-006
   2.1128480892640411E-006
   1.0349891269023637E-006
   1.0412761053402164E-006
   2.1252647641745170E-006
   3.2063865084697163E-006
   4.2609892833000984E-006
   5.2434427016967433E-006
   6.0767920053717006E-006
   6.6460489573927362E-006
   6.7946490497350354E-006
   6.3267069243533314E-006
   5.0184436549693956E-006
   2.6422429380001944E-006
   9.9437147882408539E-007
   5.9956769027369461E-006
   1.2316982412663435E-005
   1.9709871023065872E-005
   2.7693846619158968E-005
   3.5576055445907251E-005
   4.2531595681349899E-005
   4.7736868304726343E-005
   5.0525707200099745E-005
   5.0525707199766678E-005
   4.7736868304837365E-005
   4.2531595681349899E-005
   3.5576055445685206E-005
   2.7693846619269991E-005
   1.9709871022399739E-005
   1.2316982412108324E-005
   5.9956769025149015E-006
   9.9437147837999618E-007
   2.6422429374450829E-006
   5.0184436547473510E-006
   6.3267069244643537E-006
   6.7946490499570800E-006
   6.6460489576147808E-006
   6.0767920054827229E-006
   5.2434427021408325E-006
   4.2609892833556096E-006
   3.2063865084697163E-006
   2.1252647644520728E-006
   1.0412761052291941E-006
   1.0447048681139215E-006
   2.1319521061879954E-006
   3.2151175337613580E-006
   4.2688176553618007E-006
   5.2443551653569287E-006
   6.0597513996674124E-006
   6.5923586183291860E-006
   6.6746546424356623E-006
   6.0960206941240713E-006
   4.6141772901409084E-006
   1.9802031399063225E-006
   2.0199576574730926E-006
   7.5077571503046059E-006
   1.4444327294027559E-005
   2.2567518490945737E-005
   3.1356734032650380E-005
   4.0051114573169677E-005
   4.7736868304615321E-005